0 	2.51171 	-0.0787746 	-0.376115
0.0505051 	2.51171 	-0.0787746 	-0.376115
0.10101 	3.37005 	-0.000626685 	-0.0924163
0.151515 	3.37005 	-0.000626685 	-0.0924163
0.20202 	4.22838 	0.0775212 	0.191282
0.252525 	4.22838 	0.0775212 	0.191282
0.30303 	4.94953 	0.0584948 	0.356851
0.353535 	4.94953 	0.0584948 	0.356851
0.40404 	5.54656 	-0.0484512 	0.415541
0.454545 	5.54656 	-0.0484512 	0.415541
0.505051 	6.13739 	-0.137594 	0.45041
0.555556 	6.13739 	-0.137594 	0.45041
0.606061 	6.61051 	0.111533 	0.0326754
0.656566 	6.61051 	0.111533 	0.0326754
0.707071 	7.08363 	0.36066 	-0.385059
0.757576 	7.08363 	0.36066 	-0.385059
0.808081 	7.50932 	0.470995 	-0.512248
0.858586 	7.50932 	0.470995 	-0.512248
0.909091 	7.89995 	0.478746 	-0.424686
0.959596 	7.89995 	0.478746 	-0.424686
1.0101 	8.3168 	0.460946 	-0.327021
1.06061 	8.3168 	0.460946 	-0.327021
1.11111 	8.96965 	0.213186 	-0.138428
1.16162 	8.96965 	0.213186 	-0.138428
1.21212 	9.62251 	-0.0345752 	0.0501639
1.26263 	9.62251 	-0.0345752 	0.0501639
1.31313 	9.94446 	-0.0883112 	0.13362
1.36364 	9.94446 	-0.0883112 	0.13362
1.41414 	10.0679 	-0.0256325 	0.153994
1.46465 	10.0679 	-0.0256325 	0.153994
1.51515 	10.1669 	-0.0237825 	0.0899961
1.56566 	10.1669 	-0.0237825 	0.0899961
1.61616 	10.1281 	-0.366629 	-0.452112
1.66667 	10.1281 	-0.366629 	-0.452112
1.71717 	10.0892 	-0.709476 	-0.99422
0 	10.0892 	-0.709476 	-0.99422
0.0505051 	10.1066 	-0.751095 	-1.16614
0.10101 	10.1066 	-0.751095 	-1.16614
0.151515 	10.1512 	-0.647679 	-1.15981
0.20202 	10.1512 	-0.647679 	-1.15981
0.252525 	10.2398 	-0.549655 	-1.07922
0.30303 	10.2398 	-0.549655 	-1.07922
0.353535 	10.504 	-0.473198 	-0.70153
0.40404 	10.504 	-0.473198 	-0.70153
0.454545 	10.7683 	-0.396741 	-0.323845
0.505051 	10.7683 	-0.396741 	-0.323845
0.555556 	10.9611 	-0.517767 	-0.0968977
0.606061 	10.9611 	-0.517767 	-0.0968977
0.656566 	11.1269 	-0.7137 	0.0728732
0.707071 	11.1269 	-0.7137 	0.0728732
0.757576 	11.215 	-0.839416 	0.222926
0.808081 	11.215 	-0.839416 	0.222926
0.858586 	11.0704 	-0.75448 	0.313825
0.909091 	11.0704 	-0.75448 	0.313825
0.959596 	10.9258 	-0.669544 	0.404723
1.0101 	10.9258 	-0.669544 	0.404723
1.06061 	10.8628 	-0.830228 	0.330189
1.11111 	10.8628 	-0.830228 	0.330189
1.16162 	10.8237 	-1.06222 	0.207625
1.21212 	10.8237 	-1.06222 	0.207625
1.26263 	10.9962 	-1.33098 	0.1089
1.31313 	10.9962 	-1.33098 	0.1089
1.36364 	11.6627 	-1.68551 	0.0657967
1.41414 	11.6627 	-1.68551 	0.0657967
1.46465 	12.3293 	-2.04004 	0.0226935
1.51515 	12.3293 	-2.04004 	0.0226935
1.56566 	11.3881 	-1.80423 	-0.16648
1.61616 	11.3881 	-1.80423 	-0.16648
1.66667 	10.1058 	-1.44321 	-0.386638
1.71717 	10.1058 	-1.44321 	-0.386638
1.76768 	8.61672 	-1.02142 	-0.408721
1.81818 	8.61672 	-1.02142 	-0.408721
1.86869 	6.74348 	-0.486804 	-0.0629519
1.91919 	6.74348 	-0.486804 	-0.0629519
1.9697 	4.87024 	0.0478142 	0.282817
2.0202 	4.87024 	0.0478142 	0.282817
2.07071 	5.15849 	0.0210637 	0.377392
2.12121 	5.15849 	0.0210637 	0.377392
2.17172 	5.75552 	-0.0858824 	0.436082
2.22222 	5.75552 	-0.0858824 	0.436082
2.27273 	6.30298 	-0.0503993 	0.304203
2.32323 	6.30298 	-0.0503993 	0.304203
2.37374 	6.7761 	0.198727 	-0.113532
2.42424 	6.7761 	0.198727 	-0.113532
2.47475 	7.24923 	0.447854 	-0.531266
2.52525 	7.24923 	0.447854 	-0.531266
2.57576 	7.64604 	0.473708 	-0.481601
2.62626 	7.64604 	0.473708 	-0.481601
2.67677 	8.03667 	0.481459 	-0.394039
2.72727 	8.03667 	0.481459 	-0.394039
2.77778 	8.5453 	0.37423 	-0.261013
2.82828 	8.5453 	0.37423 	-0.261013
2.87879 	9.19815 	0.126469 	-0.072421
2.92929 	9.19815 	0.126469 	-0.072421
2.9798 	9.85101 	-0.121291 	0.116171
3.0303 	9.85101 	-0.121291 	0.116171
3.08081 	9.98766 	-0.0663737 	0.140751
3.13131 	9.98766 	-0.0663737 	0.140751
3.18182 	10.1111 	-0.00369489 	0.161125
3.23232 	10.1111 	-0.00369489 	0.161125
3.28283 	10.1533 	-0.143779 	-0.0997418
3.33333 	10.1533 	-0.143779 	-0.0997418
1.76768 	10.1144 	-0.486625 	-0.64185
1.81818 	10.1144 	-0.486625 	-0.64185
1.86869 	10.0776 	-0.818316 	-1.17025
1.91919 	10.0776 	-0.818316 	-1.17025
1.9697 	10.1222 	-0.7149 	-1.16392
2.0202 	10.1222 	-0.7149 	-1.16392
2.07071 	10.1668 	-0.611484 	-1.1576
2.12121 	10.1668 	-0.611484 	-1.1576
2.17172 	10.3322 	-0.522895 	-0.947026
2.22222 	10.3322 	-0.522895 	-0.947026
2.27273 	10.5965 	-0.446438 	-0.56934
2.32323 	10.5965 	-0.446438 	-0.56934
2.37374 	10.8534 	-0.39041 	-0.207249
2.42424 	10.8534 	-0.39041 	-0.207249
2.47475 	11.0191 	-0.586343 	-0.0374778
2.52525 	11.0191 	-0.586343 	-0.0374778
2.57576 	11.1849 	-0.782277 	0.132293
2.62626 	11.1849 	-0.782277 	0.132293
2.67677 	11.1644 	-0.809688 	0.254741
2.72727 	11.1644 	-0.809688 	0.254741
2.77778 	11.0198 	-0.724752 	0.345639
2.82828 	11.0198 	-0.724752 	0.345639
2.87879 	10.8883 	-0.679433 	0.409855
2.92929 	10.8883 	-0.679433 	0.409855
2.9798 	10.8491 	-0.911426 	0.287292
3.0303 	10.8491 	-0.911426 	0.287292
3.08081 	10.81 	-1.14342 	0.164728
3.13131 	10.81 	-1.14342 	0.164728
3.18182 	10.1136 	-1.17904 	0.0353824
3.23232 	10.1136 	-1.17904 	0.0353824
3.28283 	9.06342 	-1.10893 	-0.0976152
3.33333 	9.06342 	-1.10893 	-0.0976152
3.38384 	7.94522 	-0.968665 	-0.169625
3.43434 	7.94522 	-0.968665 	-0.169625
3.48485 	6.50647 	-0.497662 	0.0458811
3.53535 	6.50647 	-0.497662 	0.0458811
3.58586 	5.06771 	-0.0266594 	0.261387
3.63636 	5.06771 	-0.0266594 	0.261387
3.68687 	5.05401 	0.0397792 	0.367122
3.73737 	5.05401 	0.0397792 	0.367122
3.78788 	5.65104 	-0.0671668 	0.425812
3.83838 	5.65104 	-0.0671668 	0.425812
3.88889 	6.22019 	-0.0939965 	0.377306
3.93939 	6.22019 	-0.0939965 	0.377306
3.9899 	6.69331 	0.15513 	-0.0404281
4.0404 	6.69331 	0.15513 	-0.0404281
4.09091 	7.16643 	0.404257 	-0.458162
4.14141 	7.16643 	0.404257 	-0.458162
4.19192 	7.57768 	0.472352 	-0.496924
4.24242 	7.57768 	0.472352 	-0.496924
4.29293 	7.96831 	0.480103 	-0.409362
4.34343 	7.96831 	0.480103 	-0.409362
4.39394 	8.43105 	0.417588 	-0.294017
4.44444 	8.43105 	0.417588 	-0.294017
4.49495 	9.0839 	0.169827 	-0.105425
4.54545 	9.0839 	0.169827 	-0.105425
4.59596 	9.73676 	-0.0779333 	0.0831675
4.64646 	9.73676 	-0.0779333 	0.0831675
4.69697 	9.96606 	-0.0773425 	0.137185
4.74747 	9.96606 	-0.0773425 	0.137185
4.79798 	10.0895 	-0.0146637 	0.15756
4.84848 	10.0895 	-0.0146637 	0.15756
4.89899 	10.1601 	-0.0837807 	-0.00487287
4.94949 	10.1601 	-0.0837807 	-0.00487287
5 	10.1212 	-0.426627 	-0.546981
3.38384 	10.1212 	-0.426627 	-0.546981
3.43434 	10.0823 	-0.769474 	-1.08909
3.48485 	10.0823 	-0.769474 	-1.08909
3.53535 	10.1144 	-0.732997 	-1.16503
3.58586 	10.1144 	-0.732997 	-1.16503
3.63636 	10.159 	-0.629581 	-1.15871
3.68687 	10.159 	-0.629581 	-1.15871
3.73737 	10.286 	-0.536275 	-1.01312
3.78788 	10.286 	-0.536275 	-1.01312
3.83838 	10.5503 	-0.459818 	-0.635435
3.88889 	10.5503 	-0.459818 	-0.635435
3.93939 	10.8145 	-0.383361 	-0.25775
3.9899 	10.8145 	-0.383361 	-0.25775
4.0404 	10.9901 	-0.552055 	-0.0671878
4.09091 	10.9901 	-0.552055 	-0.0671878
4.14141 	11.1559 	-0.747988 	0.102583
4.19192 	11.1559 	-0.747988 	0.102583
4.24242 	11.1897 	-0.824552 	0.238833
4.29293 	11.1897 	-0.824552 	0.238833
4.34343 	11.0451 	-0.739616 	0.329732
4.39394 	11.0451 	-0.739616 	0.329732
4.44444 	10.9004 	-0.65468 	0.420631
4.49495 	10.9004 	-0.65468 	0.420631
4.54545 	10.856 	-0.870827 	0.30874
4.59596 	10.856 	-0.870827 	0.30874
4.64646 	10.8168 	-1.10282 	0.186177
4.69697 	10.8168 	-1.10282 	0.186177
4.74747 	10.9657 	-1.32746 	0.0984492
4.79798 	10.9657 	-1.32746 	0.0984492
4.84848 	11.3224 	-1.54396 	0.0492246
4.89899 	11.3224 	-1.54396 	0.0492246
4.94949 	11.6791 	-1.76046 	8.65661e-16
5 	11.6791 	-1.76046 	8.65661e-16
