# Probe 0 (-0.273875 0 0)
# Probe 1 (-0.273875 0.412125 0)
# Probe 2 (-0.273875 -0.412125 0)
# Probe 3 (0.273875 0 0)
# Probe 4 (0.273875 0.412125 0)
# Probe 5 (0.273875 -0.412125 0)
#       Probe             0             1             2             3             4             5
#        Time
        1e-05    3.7869e+06   3.75278e+06   3.75074e+06   3.34991e+06   3.38405e+06   3.38607e+06
        2e-05  -1.89166e+06  -1.87468e+06  -1.87364e+06  -1.67346e+06  -1.69053e+06  -1.69152e+06
        3e-05      -10486.8      -10406.5      -10412.3      -9255.17      -9358.29      -9371.65
        4e-05       7006.32       6908.62       6908.85       6171.49       6224.39       6230.68
        5e-05       4492.99       4421.75        4421.2       3956.17       3985.93       3989.86
        6e-05      -2123.34      -2134.33      -2131.66         -1896      -1925.92      -1925.52
        7e-05      -401.458      -427.701      -426.062      -373.066      -387.243       -385.85
        8e-05       3173.19       3114.95       3114.63        2788.9       2807.16       2810.55
        9e-05       -2873.6      -2877.05      -2874.21      -2560.01      -2596.07      -2595.89
       0.0001      -1709.25      -1723.02      -1720.92      -1530.28       -1555.5      -1554.71
      0.00011       -1893.9      -1905.93      -1903.82      -1693.99      -1720.58      -1719.87
      0.00012       4058.79       3993.09       3991.82       3571.22       3598.71       3602.56
      0.00013      -2750.88      -2755.36      -2752.92      -2452.99      -2486.64      -2486.35
      0.00014      -3758.41      -3753.99      -3751.04      -3344.83      -3387.16      -3387.39
      0.00015      -1900.54      -1913.07      -1911.21      -1702.14      -1727.26      -1726.51
      0.00016       5566.54       5486.42       5484.24       4902.41          4945       4949.78
      0.00017      -735.484      -758.993      -757.892      -672.824      -686.747      -685.345
      0.00018       5347.57        5268.9       5266.74       4707.44       4748.77       4753.44
      0.00019       591.354       555.281       555.679       499.554       498.261       500.426
       0.0002       3243.63        3183.4       3182.29       2845.09       2868.09       2871.64
      0.00021      -4169.34      -4162.94      -4159.94      -3712.75      -3756.37       -3756.7
      0.00022      -3136.86      -3139.79      -3137.53      -2799.91      -2833.81      -2833.68
      0.00023       367.202        332.54       333.001       299.203       297.174       299.238
      0.00024       441.966       406.583       407.068       365.183       364.031        366.17
      0.00025       5970.82       5885.53       5882.98       5255.57       5304.54       5309.61
      0.00026       2678.52       2622.85       2622.01       2342.96       2362.42       2365.73
      0.00027      -817.486      -841.654      -840.602      -749.677      -761.548      -760.113
      0.00028        1076.5       1035.13       1035.26       925.303       930.736       933.219
      0.00029       3742.48       3677.09       3675.68       3283.36       3313.04       3316.91
       0.0003      -2994.57      -2999.18      -2996.99      -2676.22      -2707.17      -2706.91
      0.00031      -1410.11      -1428.96      -1427.62      -1274.78      -1291.23      -1290.14
      0.00032      -10388.5      -10326.3      -10320.1      -9217.02      -9314.33      -9317.99
      0.00033       9859.49       9739.24       9734.49       8694.05       8779.58       8786.66
      0.00034      -5055.53      -5041.36      -5037.99      -4499.85      -4548.75      -4549.57
      0.00035       -7018.5      -6986.42      -6982.09      -6236.14      -6302.56       -6304.5
      0.00036      -2194.87      -2206.21      -2204.44      -1969.34      -1992.09      -1991.44
      0.00037      -609.851      -635.401      -634.461      -567.405      -575.718        -574.2
      0.00038      -1928.38      -1941.94      -1940.24      -1733.64      -1753.77      -1752.93
      0.00039      -423.146      -450.206      -449.367      -402.255      -408.646      -407.043
       0.0004       2071.24        2021.7       2021.25       1804.14       1820.34        1823.3
      0.00041        3876.2       3810.39       3809.04       3400.76       3433.31       3437.26
      0.00042       -4016.2      -4010.71      -4007.98      -3580.73      -3619.26       -3619.6
      0.00043      -3208.89      -3210.69      -3208.35      -2866.71       -2897.8      -2897.73
      0.00044       6836.17        6743.8       6740.75       6018.82       6078.42       6083.88
      0.00045       483.829       448.739       449.189       399.705       402.006       404.109
      0.00046      -2719.62      -2725.68      -2723.67      -2433.98      -2460.44      -2460.14
      0.00047        8478.8       8371.72       8367.81       7471.85       7546.47        7552.8
      0.00048       2637.35       2582.87       2582.13       2304.42       2326.39       2329.62
      0.00049      -4045.46      -4039.58      -4036.77      -3606.95      -3645.17      -3645.55
       0.0005       5722.55       5640.38       5637.87       5033.48        5083.5       5088.31
      0.00051      -5655.49      -5635.17      -5631.33      -5031.48      -5084.07      -5085.24
      0.00052       2603.07       2549.13       2548.26       2273.96       2296.02       2299.13
      0.00053       7064.48       6970.17       6967.14       6220.36       6282.65       6288.26
      0.00054      -370.842      -398.073      -397.188      -356.829      -361.555      -359.943
      0.00055      -4810.93      -4798.02       -4794.8      -4284.45      -4329.12      -4329.92
      0.00056      -3348.83      -3349.01      -3346.58      -2991.12      -3022.48      -3022.51
      0.00057       3482.75       3420.97       3419.75       3051.81       3082.13       3085.78
      0.00058      -1329.02      -1347.34      -1345.95      -1204.45      -1217.51      -1216.43
      0.00059       4320.08       4250.71       4249.05       3792.39       3830.41       3834.49
       0.0006      -8825.86      -8776.65      -8771.27      -7836.34      -7916.84      -7919.79
      0.00061      -1679.32      -1694.39      -1692.94      -1514.53      -1530.44      -1529.63
      0.00062       -4840.2      -4826.76      -4823.57      -4310.73      -4355.11      -4355.95
      0.00063       2496.74       2444.04        2443.4       2179.45        2201.3       2204.42
      0.00064      -7047.94      -7014.48      -7010.06      -6263.63      -6327.81      -6329.82
      0.00065       2836.68       2781.09        2780.2       2480.23       2505.27       2508.53
      0.00066       -824.04      -846.587      -845.534      -758.001      -765.977      -764.668
      0.00067       1638.88       1594.09       1593.91       1420.61        1434.9       1437.55
      0.00068       5267.38       5189.89       5187.74        4630.3       4677.34       4681.93
      0.00069      -1076.69      -1096.97      -1095.76      -981.537      -991.726      -990.551
       0.0007      -3207.35      -3208.37      -3206.04      -2866.22      -2895.63      -2895.63
      0.00071       4758.53       4685.66       4683.77       4180.29       4222.69       4226.96
      0.00072       -1874.4      -1887.44      -1885.76       -1687.4      -1704.53      -1703.72
      0.00073      -1080.26      -1100.49       -1099.1      -985.201      -994.901      -993.581
      0.00074        9182.1       9069.33       9065.18       8092.69       8175.56       8182.36
      0.00075       -180.78      -209.165      -208.334      -189.569      -191.187      -189.406
      0.00076       4111.56       4044.47       4042.94       3607.47       3644.48       3648.49
      0.00077      -3612.03      -3609.54      -3606.74      -3224.88      -3257.39      -3257.39
      0.00078       4859.85       4785.98       4784.18       4269.07       4313.13       4317.64
      0.00079        4787.8       4714.58       4712.74       4205.21       4248.65       4253.12
       0.0008      -2716.32      -2721.87       -2719.5      -2432.59      -2456.85      -2456.32
      0.00081       -2341.8      -2350.78      -2348.67      -2101.63      -2122.33      -2121.62
      0.00082       2838.64       2782.98       2782.24       2480.77       2506.87       2510.33
      0.00083      -4228.68      -4220.56      -4217.47      -3770.59      -3808.38      -3808.71
      0.00084      -403.545      -429.866      -428.854      -386.811      -390.161      -388.494
      0.00085      -810.904      -833.539      -832.228      -747.123       -754.15      -752.647
      0.00086       4247.37       4179.14       4177.68       3727.21       3765.92       3770.11
      0.00087      -695.791      -719.412      -718.228       -645.41      -651.246      -649.686
      0.00088      -2698.61      -2704.15      -2701.88      -2417.14      -2440.95      -2440.45
      0.00089       1908.99       1861.88       1861.73       1658.55       1676.38       1679.36
       0.0009      -2413.87      -2421.97      -2419.74      -2165.31      -2186.48      -2185.77
      0.00091       2201.34       2151.71       2151.28       1917.13       1937.72       1940.82
      0.00092      -5097.48      -5081.34      -5077.66      -4539.28      -4584.55      -4585.27
      0.00093      -1219.94      -1238.67      -1237.26       -1109.3      -1119.46       -1118.2
      0.00094       5510.74       5431.18        5429.2       4844.37       4894.93        4899.9
      0.00095      -2255.58      -2265.06      -2262.91      -2025.52         -2045      -2044.19
      0.00096        26.435      -3.54037      -2.72667      -6.97073      -5.73236      -3.76117
      0.00097       5819.68       5737.45        5735.2       5117.58       5171.12       5176.22
      0.00098      -1221.15      -1239.94      -1238.36      -1110.63      -1120.64      -1119.26
      0.00099      -128.535      -157.198      -156.169      -144.186      -144.266      -142.304
        0.001       1917.53       1870.44       1870.33       1665.66       1684.09       1687.14
      0.00101      -1220.27      -1239.04      -1237.45      -1109.92       -1119.8      -1118.41
      0.00102      -4333.56       -4324.2      -4320.97      -3863.93       -3901.8       -3902.1
      0.00103       2551.63       2498.93       2498.47       2226.56       2250.86       2254.25
      0.00104      -4178.76      -4170.79      -4167.49      -3727.02      -3763.45      -3763.58
      0.00105      -3620.57      -3617.54      -3614.68      -3233.26      -3264.53      -3264.44
      0.00106      -3208.87      -3209.55      -3206.81      -2869.19      -2896.71      -2896.32
      0.00107        704.41       668.483       669.106       592.324       600.238       602.675
      0.00108      -1160.02      -1178.96       -1177.5      -1056.74      -1065.62      -1064.24
      0.00109      -1359.48       -1376.7      -1374.92      -1233.12      -1243.88       -1242.5
       0.0011       1277.22       1236.27       1236.59       1099.14        1112.3       1115.06
      0.00111      -1815.64      -1828.64      -1826.69      -1636.67      -1651.42      -1650.31
      0.00112       814.004        777.25       777.814       689.168       698.383       700.864
      0.00113        4092.7       4026.35       4025.18        3589.4        3628.2       3632.46
      0.00114       4769.64       4697.23       4695.56       4188.19       4233.15       4237.71
      0.00115       3172.76       3114.67       3113.95       2775.52       2806.07       2809.84
      0.00116      -3938.08      -3932.06      -3928.87      -3514.55      -3548.06      -3548.05
      0.00117       -3577.1      -3574.24      -3571.38      -3195.25      -3225.48      -3225.37
      0.00118      -721.288      -744.225      -742.754      -669.126      -673.621      -671.899
      0.00119      -899.417      -920.674      -919.148      -826.665      -832.659      -831.056
       0.0012       365.104       332.472       333.282       291.801       297.308       299.568
      0.00121        1465.5       1422.92       1423.25       1265.22       1280.65       1283.55
      0.00122      -1806.67      -1819.69      -1817.65      -1629.25      -1643.31      -1642.17
      0.00123        2100.6       2052.35        2052.3       1826.92       1848.22       1851.45
      0.00124       1914.96       1868.39       1868.44       1662.64       1682.32       1685.47
      0.00125      -3492.47      -3490.26      -3487.24      -3120.61      -3149.69      -3149.39
      0.00126       5950.24       5867.31       5865.19       5232.23        5288.3       5293.59
      0.00127      -4.53302      -33.7523      -32.6696      -35.0407      -32.8396      -30.7501
      0.00128       -5729.5      -5707.01      -5702.95       -5099.1      -5148.59      -5149.64
      0.00129       666.942       631.786       632.438       558.996       567.296       569.668
       0.0013      -3318.54      -3317.72      -3314.85      -2966.45       -2994.1       -2993.8
      0.00131       118.574       88.4337       89.4644       73.9281       77.3639       79.4822
      0.00132      -3101.45      -3102.53      -3099.69      -2774.39      -2800.02      -2799.58
      0.00133       5113.22       5038.17        5036.4       4492.11       4540.69       4545.43
      0.00134        1963.9       1917.18       1917.24       1706.28        1726.4       1729.52
      0.00135      -3415.68      -3413.81      -3410.94       -3052.3      -3080.66      -3080.46
      0.00136      -2175.02      -2184.35      -2182.09      -1954.95      -1972.04      -1971.17
      0.00137       5598.37       5518.94       5517.03       4921.23       4974.22       4979.26
      0.00138      -2894.66      -2897.51      -2894.78      -2591.39      -2615.14      -2614.57
      0.00139          1937       1890.64       1890.69        1682.7       1702.52       1705.61
       0.0014      -3257.42      -3256.92      -3254.01      -2912.15      -2939.19      -2938.84
      0.00141       6219.24       6134.34       6132.08       5470.72       5529.24        5534.6
      0.00142      -2898.41      -2901.13      -2898.43      -2594.65      -2618.38      -2617.86
      0.00143      -856.202      -877.271      -875.727      -788.138      -793.371      -791.803
      0.00144       5475.26       5397.09       5395.25       4812.51       4864.41       4869.37
      0.00145       4481.99       4412.71        4411.5       3933.85       3976.75       3981.24
      0.00146      -9807.99      -9748.29      -9741.94      -8706.66       -8792.6      -8795.83
      0.00147      -869.393      -890.299      -888.653       -799.83      -805.086      -803.506
      0.00148       1108.21       1069.54       1070.06       949.507       962.133       964.749
      0.00149      -4845.01      -4829.94      -4826.19      -4316.46      -4357.56       -4358.1
       0.0015      -181.985      -208.943      -207.679      -191.764      -190.677      -188.734
      0.00151      -2515.24      -2521.11      -2518.57       -2255.6      -2275.63      -2274.93
      0.00152       1853.01       1807.82       1807.96       1608.52       1627.94       1630.93
      0.00153       2735.21       2682.07       2681.73       2388.85       2416.25       2419.72
      0.00154      -4396.52      -4385.35       -4381.8      -3919.66      -3956.63      -3956.94
      0.00155       4009.97       3945.37       3944.37       3516.55       3555.46       3559.62
      0.00156      -6141.25       -6114.3      -6109.82      -5463.06      -5515.71      -5516.96
      0.00157       6321.88        6236.5       6234.24       5561.65       5621.48       5626.85
      0.00158      -1473.72      -1488.86      -1486.82      -1334.23      -1344.75      -1343.49
      0.00159       3113.49       3057.02       3056.48       2723.46       2754.41       2758.06
       0.0016      -8341.96      -8295.13      -8289.44      -7409.89      -7482.22      -7484.66
      0.00161       3699.04       3637.36       3636.57       3241.49       3277.79       3281.76
      0.00162         -8459      -8410.98      -8405.31      -7513.45      -7586.72      -7589.26
      0.00163       7692.01       7594.46       7591.48       6773.72        6846.1       6852.18
      0.00164      -7681.52      -7640.49      -7635.19      -6825.69      -6891.97      -6894.08
      0.00165        2740.4       2687.55       2687.22       2393.59       2421.35       2424.77
      0.00166       5734.25       5654.33       5652.41       5041.72        5096.5       5101.54
      0.00167      -7362.69      -7324.52      -7319.36      -6543.64      -6606.95      -6608.89
      0.00168       7021.31       6929.88       6927.18       6180.28        6246.8       6252.47
      0.00169       118.422       89.0842       90.3075       73.9681       78.1587       80.2572
       0.0017       939.657       902.949       903.633       800.349       812.056        814.53
      0.00171       5409.97       5332.93       5331.15        4754.6       4806.69       4811.52
      0.00172      -4472.14      -4460.12      -4456.48      -3986.94      -4023.99      -4024.38
      0.00173       2886.89       2832.55       2832.22       2522.57       2552.05       2555.56
      0.00174       1201.21       1162.13       1162.58       1031.48       1045.73       1048.31
      0.00175        1926.9       1881.19       1881.36       1673.31       1694.18       1697.18
      0.00176       1878.04       1832.75       1832.93       1630.07       1650.46       1653.43
      0.00177       215.237       184.943       186.024       159.239       164.656       166.739
      0.00178       2070.54        2023.5       2023.51       1800.26       1822.47       1825.49
      0.00179      -1781.07      -1793.39      -1791.27      -1606.85      -1619.33      -1618.33
       0.0018      -3932.39      -3925.26      -3922.01      -3510.09      -3541.74      -3541.87
      0.00181       4779.37       4707.93        4706.5       4196.08        4243.1       4247.62
      0.00182       1113.21       1074.77       1075.41       952.999       966.958       969.574
      0.00183      -4042.01      -4033.93      -4030.56       -3607.2      -3639.67      -3639.84
      0.00184       2018.16       1971.63       1971.64       1753.29       1775.65       1778.66
      0.00185      -2504.98      -2510.68      -2508.27      -2247.77      -2266.17      -2265.59
      0.00186      -4501.63      -4489.34      -4485.76      -4014.03      -4050.38      -4050.82
      0.00187      -4830.84      -4815.56      -4811.75       -4305.2      -4344.56      -4345.14
      0.00188      -41.4592      -69.3387      -68.0992      -68.4884      -64.7478      -62.7363
      0.00189       8375.81       8272.04       8268.69       7377.24       7456.92       7463.42
       0.0019       869.713       833.601       834.253       737.344       749.424       751.899
      0.00191      -1170.82      -1188.53      -1186.77      -1067.69      -1073.94      -1072.56
      0.00192      -125.558      -152.806      -151.465      -143.287      -140.045      -138.055
      0.00193       568.859       535.397       536.292       471.008       480.526       482.856
      0.00194       1432.14       1390.88       1391.33       1234.58       1251.95       1254.75
      0.00195      -9444.71      -9387.88      -9381.53      -8387.07      -8467.65      -8470.59
      0.00196       3641.77       3580.69       3579.98       3189.05       3226.61       3230.65
      0.00197       13587.1       13436.2       13430.2       11986.4       12113.6         12123
      0.00198      -1605.45      -1619.39      -1617.23      -1452.81      -1462.58      -1461.28
      0.00199      -2748.14      -2751.74      -2749.03      -2463.66      -2483.58      -2482.92
        0.002      -5511.94      -5490.63      -5486.34      -4908.62      -4953.36      -4954.14
      0.00201      -1117.75      -1135.94      -1134.12      -1021.57       -1026.6      -1025.07
      0.00202       1850.33       1805.28       1805.61       1603.79       1625.55       1628.73
      0.00203       1131.68        1093.1       1093.89       968.097       983.396       986.234
      0.00204      -4253.46      -4243.39      -4239.83      -3795.46      -3828.66      -3828.75
      0.00205       3679.65       3618.15       3617.48       3221.88       3260.31       3264.46
      0.00206      -4575.39      -4562.45      -4558.62      -4080.52      -4116.44      -4116.63
      0.00207       4568.15        4498.7        4497.5        4007.6        4054.3       4058.94
      0.00208      -7005.58      -6970.75      -6965.54      -6230.46      -6288.12      -6289.56
      0.00209       2698.84       2646.29       2646.18       2353.97       2383.95       2387.64
       0.0021       7236.08       7142.54       7140.06       6367.42       6438.33        6444.5
      0.00211      -96.1946      -123.656        -122.2      -118.695      -113.852      -111.589
      0.00212      -2571.88      -2576.98      -2574.25      -2308.69      -2326.06      -2325.15
      0.00213      -5141.31      -5123.26      -5119.05      -4581.59      -4622.15      -4622.57
      0.00214        1848.5       1803.56       1803.99       1601.44       1624.01        1627.3
      0.00215       6286.69       6201.73       6199.75       5527.31       5589.96       5595.62
      0.00216      -4998.56      -4981.76      -4977.69      -4455.48      -4494.61      -4494.97
      0.00217       1404.73       1363.82       1364.44       1208.85       1227.49       1230.51
      0.00218       2329.45       2280.15       2280.34       2026.63       2053.73        2057.3
      0.00219       3846.48        3783.5       3782.82       3368.39       3409.33       3413.72
       0.0022      -4205.53      -4195.88      -4192.24      -3754.28      -3785.93      -3785.85
      0.00221        1237.9       1198.43        1199.2       1060.82       1078.31        1081.3
      0.00222       926.892       890.265       891.159       785.871        800.43       803.223
      0.00223       657.386       623.177       624.258       547.609       559.652       562.284
      0.00224      -1292.47      -1309.06         -1307      -1177.62      -1182.79      -1181.15
      0.00225       2906.78       2852.28       2852.11        2536.9       2569.63        2573.5
      0.00226      -229.657      -255.905      -254.354      -237.499      -233.103      -230.888
      0.00227      -4820.26      -4805.08      -4801.06      -4298.26      -4335.24      -4335.49
      0.00228      -1030.49      -1049.34      -1047.48      -945.847      -948.575      -946.869
      0.00229       1603.75       1561.08       1561.65       1384.25        1405.3       1408.47
       0.0023       279.359       248.667       249.939       212.837       221.914       224.372
      0.00231      -1571.07      -1585.04      -1582.83      -1423.92      -1431.58      -1430.17
      0.00232       1586.04       1543.56       1544.09       1368.59       1389.54       1392.65
      0.00233       855.148        819.26       820.177       722.189        736.43       739.131
      0.00234      -6042.23      -6015.86      -6011.29      -5378.96         -5427      -5428.03
      0.00235      -2333.26      -2340.26      -2337.77      -2098.03      -2112.57      -2111.68
      0.00236       2970.76       2915.88       2915.59       2593.65       2626.97       2630.72
      0.00237      -5519.92      -5498.22      -5493.88      -4916.92      -4960.23      -4960.99
      0.00238      -1916.46      -1927.16      -1924.86      -1729.32      -1740.03      -1738.94
      0.00239       1045.68       1008.22       1008.99       890.763       906.787       909.493
       0.0024      -8832.65      -8780.91      -8774.92      -7847.27      -7920.35      -7922.97
      0.00241       6110.34       6027.41       6025.37       5371.23       5432.92       5438.26
      0.00242      -1975.69      -1985.78      -1983.45      -1781.72      -1792.96      -1791.92
      0.00243       8363.88       8260.53       8257.28        7364.5       7446.57       7453.09
      0.00244      -345.841      -370.683      -369.289      -340.066      -336.569      -334.711
      0.00245       -98.123      -125.226      -123.935      -120.873      -115.179      -113.197
      0.00246       6231.71       6147.48       6145.37       5478.18       5541.12       5546.47
      0.00247       425.486       393.643       394.542       342.021       352.657       354.846
      0.00248      -1431.96      -1447.07      -1445.13      -1301.06      -1307.09      -1305.92
      0.00249       5919.71       5838.29       5836.24       5201.97       5262.33       5267.41
       0.0025        4012.5       3948.15       3947.23       3514.79       3557.84       3561.99
      0.00251       486.509       454.077       454.901       396.016       407.262        409.45
      0.00252      -6864.71      -6830.95      -6826.04      -6106.73      -6161.96      -6163.66
      0.00253       10161.1       10041.4         10037       8954.11       9052.48        9059.8
      0.00254      -9575.11      -9516.99      -9510.57      -8504.48      -8584.16      -8587.29
      0.00255       501.161        468.63       469.407       409.078       420.362       422.482
      0.00256       3953.43       3889.68       3888.71       3462.76       3505.16       3509.18
      0.00257       431.724       399.754       400.648       347.577       358.219       360.348
      0.00258      -1836.14      -1847.67      -1845.54      -1658.52      -1668.33      -1667.42
      0.00259      -2933.38      -2935.01      -2932.29      -2629.18      -2648.83      -2648.52
       0.0026       4285.91       4219.23       4217.96        3756.8       3802.33       3806.45
      0.00261      -988.129      -1007.33      -1005.59      -908.483       -910.57      -909.184
      0.00262      -1576.49      -1590.29      -1588.44      -1429.01      -1436.27       -1435.3
      0.00263       6632.81       6544.85       6542.47       5832.75       5899.48       5904.89
      0.00264       1994.78       1948.65       1948.68       1729.94       1754.87        1757.8
      0.00265      -2842.72       -2845.2      -2842.59      -2549.16      -2567.81      -2567.49
      0.00266      -2566.03      -2571.07      -2568.52      -2304.51      -2320.65      -2320.15
      0.00267       2970.93       2915.98       2915.44       2593.06        2627.1        2630.5
      0.00268       6361.68       6276.11        6273.8       5592.47       5657.11       5662.35
      0.00269        -12170      -12088.5      -12080.8      -10800.5      -10902.9      -10907.6
       0.0027       1838.82       1794.16       1794.11        1591.5        1615.6       1618.32
      0.00271       1625.85       1582.99       1583.37       1403.04       1425.17       1427.95
      0.00272       -1914.9      -1925.71      -1923.58      -1729.02      -1738.71      -1737.87
      0.00273      -499.437      -523.069      -521.657      -477.007       -473.94       -472.35
      0.00274       4315.01       4247.98       4246.72       3781.64       3828.25       3832.37
      0.00275       1915.04       1869.63       1869.68       1658.68        1683.6       1686.45
      0.00276       2860.24       2806.32       2805.78       2494.74        2528.3       2531.59
      0.00277      -2287.48      -2295.02      -2292.77      -2058.95      -2071.79      -2071.23
      0.00278       1048.76       1010.99        1011.6        892.05       909.389       911.797
      0.00279      -82.0914      -109.629      -108.508      -108.326      -101.139      -99.3609
       0.0028      -1348.58      -1364.76      -1362.87      -1228.74      -1232.91      -1231.76
      0.00281      -6575.03      -6543.87      -6539.21      -5851.87       -5903.1      -5904.78
      0.00282       6654.76       6566.75       6564.04       5850.87       5919.15       5924.42
      0.00283       -3841.1       -3834.6      -3831.33       -3433.6      -3460.08      -3460.24
      0.00284      -155.849      -182.272      -181.267      -173.682      -166.655      -165.014
      0.00285      -3209.45      -3208.51       -3205.7      -2875.06      -2895.54      -2895.43
      0.00286       5434.73       5357.68       5355.86       4771.29        4828.9       4833.64
      0.00287      -12490.6        -12406      -12398.3      -11085.3      -11189.3      -11194.2
      0.00288       11453.4       11322.2       11317.1       10095.5       10207.5       10215.4
      0.00289      -3314.21      -3312.42      -3309.66      -2968.31      -2989.39      -2989.35
       0.0029       2178.95       2131.16       2131.13        1890.9       1919.44       1922.46
      0.00291      -1265.54      -1282.21      -1280.52      -1156.13      -1158.57      -1157.43
      0.00292       434.717       402.642       403.524       347.706       360.724       362.821
      0.00293       760.265       725.273       725.916        635.55       651.612       653.866
      0.00294      -893.516      -913.591      -912.048      -827.315      -826.164      -824.792
      0.00295      -1465.08      -1480.02      -1478.11      -1332.98      -1336.92      -1335.82
      0.00296       -6317.5      -6288.64      -6284.18       -5625.4      -5673.05      -5674.57
      0.00297       -4283.6      -4272.98      -4269.67      -3826.29      -3855.42      -3855.89
      0.00298       6816.52       6726.95       6724.42        5992.5       6063.46          6069
      0.00299       362.234       330.857       331.772       283.236       295.985       298.078
        0.003       8924.93       8816.33        8812.5       7857.47       7947.58       7954.19
      0.00301      -3001.76      -3003.01      -3000.23      -2692.87      -2710.35      -2710.02
      0.00302       2794.09       2740.64       2740.18       2434.03       2468.93       2472.29
      0.00303      -2957.31      -2958.93      -2956.24      -2653.65       -2670.6      -2670.26