0 	2.70639 	0.0340715 	1.52633
0.0505051 	2.70639 	0.0340715 	1.52633
0.10101 	3.47474 	0.123208 	1.45401
0.151515 	3.47474 	0.123208 	1.45401
0.20202 	4.24309 	0.212345 	1.38168
0.252525 	4.24309 	0.212345 	1.38168
0.30303 	4.92837 	0.245988 	1.08819
0.353535 	4.92837 	0.245988 	1.08819
0.40404 	5.53851 	0.229423 	0.594601
0.454545 	5.53851 	0.229423 	0.594601
0.505051 	6.16396 	0.196527 	0.140472
0.555556 	6.16396 	0.196527 	0.140472
0.606061 	7.08044 	-0.146643 	0.436065
0.656566 	7.08044 	-0.146643 	0.436065
0.707071 	7.99692 	-0.489814 	0.731659
0.757576 	7.99692 	-0.489814 	0.731659
0.808081 	8.32014 	-0.67686 	0.668103
0.858586 	8.32014 	-0.67686 	0.668103
0.909091 	8.20487 	-0.748511 	0.339088
0.959596 	8.20487 	-0.748511 	0.339088
1.0101 	8.13593 	-0.81604 	0.034185
1.06061 	8.13593 	-0.81604 	0.034185
1.11111 	8.48408 	-0.846475 	-0.0537168
1.16162 	8.48408 	-0.846475 	-0.0537168
1.21212 	8.83222 	-0.87691 	-0.141619
1.26263 	8.83222 	-0.87691 	-0.141619
1.31313 	9.25759 	-0.768714 	-0.230539
1.36364 	9.25759 	-0.768714 	-0.230539
1.41414 	9.72931 	-0.57734 	-0.320072
1.46465 	9.72931 	-0.57734 	-0.320072
1.51515 	10.135 	-0.372465 	-0.401275
1.56566 	10.135 	-0.372465 	-0.401275
1.61616 	10.1665 	-0.0910881 	-0.435282
1.66667 	10.1665 	-0.0910881 	-0.435282
1.71717 	10.198 	0.190289 	-0.469288
0 	10.198 	0.190289 	-0.469288
0.0505051 	10.3745 	0.202001 	-0.335812
0.10101 	10.3745 	0.202001 	-0.335812
0.151515 	10.6207 	0.0838747 	-0.121697
0.20202 	10.6207 	0.0838747 	-0.121697
0.252525 	10.9442 	0.00117871 	0.0161003
0.30303 	10.9442 	0.00117871 	0.0161003
0.353535 	11.5773 	0.0602035 	-0.151375
0.40404 	11.5773 	0.0602035 	-0.151375
0.454545 	12.2104 	0.119228 	-0.318851
0.505051 	12.2104 	0.119228 	-0.318851
0.555556 	12.5509 	0.178398 	-0.357037
0.606061 	12.5509 	0.178398 	-0.357037
0.656566 	12.7803 	0.237622 	-0.346183
0.707071 	12.7803 	0.237622 	-0.346183
0.757576 	13.0087 	0.284683 	-0.359492
0.808081 	13.0087 	0.284683 	-0.359492
0.858586 	13.2338 	0.295257 	-0.445289
0.909091 	13.2338 	0.295257 	-0.445289
0.959596 	13.4589 	0.30583 	-0.531085
1.0101 	13.4589 	0.30583 	-0.531085
1.06061 	13.5653 	0.473701 	-0.699692
1.11111 	13.5653 	0.473701 	-0.699692
1.16162 	13.6373 	0.687239 	-0.892339
1.21212 	13.6373 	0.687239 	-0.892339
1.26263 	13.7626 	0.896772 	-1.00283
1.31313 	13.7626 	0.896772 	-1.00283
1.36364 	14.0121 	1.09696 	-0.921618
1.41414 	14.0121 	1.09696 	-0.921618
1.46465 	14.2616 	1.29714 	-0.840407
1.51515 	14.2616 	1.29714 	-0.840407
1.56566 	13.056 	1.1195 	-0.100349
1.61616 	13.056 	1.1195 	-0.100349
1.66667 	11.5418 	0.861701 	0.779465
1.71717 	11.5418 	0.861701 	0.779465
1.76768 	9.71621 	0.631991 	1.35078
1.81818 	9.71621 	0.631991 	1.35078
1.86869 	7.31237 	0.454435 	1.34915
1.91919 	7.31237 	0.454435 	1.34915
1.9697 	4.90853 	0.276879 	1.34753
2.0202 	4.90853 	0.276879 	1.34753
2.07071 	5.14192 	0.24019 	0.915434
2.12121 	5.14192 	0.24019 	0.915434
2.17172 	5.75206 	0.223625 	0.421845
2.22222 	5.75206 	0.223625 	0.421845
2.27273 	6.48473 	0.0764173 	0.24393
2.32323 	6.48473 	0.0764173 	0.24393
2.37374 	7.40121 	-0.266753 	0.539523
2.42424 	7.40121 	-0.266753 	0.539523
2.47475 	8.31768 	-0.609923 	0.835117
2.52525 	8.31768 	-0.609923 	0.835117
2.57576 	8.27979 	-0.701938 	0.552948
2.62626 	8.27979 	-0.701938 	0.552948
2.67677 	8.16452 	-0.773589 	0.223933
2.72727 	8.16452 	-0.773589 	0.223933
2.77778 	8.25778 	-0.826692 	0.00341936
2.82828 	8.25778 	-0.826692 	0.00341936
2.87879 	8.60593 	-0.857127 	-0.0844824
2.92929 	8.60593 	-0.857127 	-0.0844824
2.9798 	8.95407 	-0.887562 	-0.172384
3.0303 	8.95407 	-0.887562 	-0.172384
3.08081 	9.42269 	-0.701733 	-0.261876
3.13131 	9.42269 	-0.701733 	-0.261876
3.18182 	9.89441 	-0.510359 	-0.351408
3.23232 	9.89441 	-0.510359 	-0.351408
3.28283 	10.146 	-0.273983 	-0.413178
3.33333 	10.146 	-0.273983 	-0.413178
1.76768 	10.1775 	0.00739377 	-0.447184
1.81818 	10.1775 	0.00739377 	-0.447184
1.86869 	10.2144 	0.278783 	-0.474987
1.91919 	10.2144 	0.278783 	-0.474987
1.9697 	10.4606 	0.160657 	-0.260872
2.0202 	10.4606 	0.160657 	-0.260872
2.07071 	10.7068 	0.0425306 	-0.0467565
2.12121 	10.7068 	0.0425306 	-0.0467565
2.17172 	11.1658 	0.0218374 	-0.0425162
2.22222 	11.1658 	0.0218374 	-0.0425162
2.27273 	11.7989 	0.0808621 	-0.209992
2.32323 	11.7989 	0.0808621 	-0.209992
2.37374 	12.4018 	0.139902 	-0.364092
2.42424 	12.4018 	0.139902 	-0.364092
2.47475 	12.6312 	0.199126 	-0.353238
2.52525 	12.6312 	0.199126 	-0.353238
2.57576 	12.8606 	0.25835 	-0.342384
2.62626 	12.8606 	0.25835 	-0.342384
2.67677 	13.0875 	0.288384 	-0.389521
2.72727 	13.0875 	0.288384 	-0.389521
2.77778 	13.3126 	0.298958 	-0.475317
2.82828 	13.3126 	0.298958 	-0.475317
2.87879 	13.5185 	0.334902 	-0.574471
2.92929 	13.5185 	0.334902 	-0.574471
2.9798 	13.5905 	0.54844 	-0.767118
3.0303 	13.5905 	0.54844 	-0.767118
3.08081 	13.6625 	0.761978 	-0.959766
3.13131 	13.6625 	0.761978 	-0.959766
3.18182 	12.4987 	0.802435 	-0.527593
3.23232 	12.4987 	0.802435 	-0.527593
3.28283 	10.6696 	0.749694 	0.241023
3.33333 	10.6696 	0.749694 	0.241023
3.38384 	8.8386 	0.674259 	0.908518
3.43434 	8.8386 	0.674259 	0.908518
3.48485 	6.99923 	0.491836 	1.0993
3.53535 	6.99923 	0.491836 	1.0993
3.58586 	5.15986 	0.309412 	1.29009
3.63636 	5.15986 	0.309412 	1.29009
3.68687 	5.03515 	0.243089 	1.00181
3.73737 	5.03515 	0.243089 	1.00181
3.78788 	5.64528 	0.226524 	0.508223
3.83838 	5.64528 	0.226524 	0.508223
3.88889 	6.32435 	0.136472 	0.192201
3.93939 	6.32435 	0.136472 	0.192201
3.9899 	7.24082 	-0.206698 	0.487794
4.0404 	7.24082 	-0.206698 	0.487794
4.09091 	8.1573 	-0.549869 	0.783388
4.14141 	8.1573 	-0.549869 	0.783388
4.19192 	8.29997 	-0.689399 	0.610525
4.24242 	8.29997 	-0.689399 	0.610525
4.29293 	8.18469 	-0.76105 	0.281511
4.34343 	8.18469 	-0.76105 	0.281511
4.39394 	8.19686 	-0.821366 	0.0188022
4.44444 	8.19686 	-0.821366 	0.0188022
4.49495 	8.545 	-0.851801 	-0.0690996
4.54545 	8.545 	-0.851801 	-0.0690996
4.59596 	8.89314 	-0.882236 	-0.157001
4.64646 	8.89314 	-0.882236 	-0.157001
4.69697 	9.34014 	-0.735223 	-0.246208
4.74747 	9.34014 	-0.735223 	-0.246208
4.79798 	9.81186 	-0.543849 	-0.33574
4.84848 	9.81186 	-0.543849 	-0.33574
4.89899 	10.1405 	-0.323224 	-0.407226
4.94949 	10.1405 	-0.323224 	-0.407226
5 	10.172 	-0.0418472 	-0.441233
3.38384 	10.172 	-0.0418472 	-0.441233
3.43434 	10.2035 	0.23953 	-0.475239
3.48485 	10.2035 	0.23953 	-0.475239
3.53535 	10.4175 	0.181329 	-0.298342
3.58586 	10.4175 	0.181329 	-0.298342
3.63636 	10.6637 	0.0632026 	-0.0842267
3.68687 	10.6637 	0.0632026 	-0.0842267
3.73737 	11.055 	0.011508 	-0.0132079
3.78788 	11.055 	0.011508 	-0.0132079
3.83838 	11.6881 	0.0705328 	-0.180683
3.88889 	11.6881 	0.0705328 	-0.180683
3.93939 	12.3212 	0.129558 	-0.348159
3.9899 	12.3212 	0.129558 	-0.348159
4.0404 	12.591 	0.188762 	-0.355138
4.09091 	12.591 	0.188762 	-0.355138
4.14141 	12.8205 	0.247986 	-0.344284
4.19192 	12.8205 	0.247986 	-0.344284
4.24242 	13.0481 	0.286534 	-0.374506
4.29293 	13.0481 	0.286534 	-0.374506
4.34343 	13.2732 	0.297107 	-0.460303
4.39394 	13.2732 	0.297107 	-0.460303
4.44444 	13.4983 	0.307681 	-0.5461
4.49495 	13.4983 	0.307681 	-0.5461
4.54545 	13.5779 	0.511071 	-0.733405
4.59596 	13.5779 	0.511071 	-0.733405
4.64646 	13.6499 	0.724608 	-0.926053
4.69697 	13.6499 	0.724608 	-0.926053
4.74747 	13.5082 	1.0112 	-0.830055
4.79798 	13.5082 	1.0112 	-0.830055
4.84848 	13.1302 	1.37853 	-0.415027
4.89899 	13.1302 	1.37853 	-0.415027
4.94949 	12.7523 	1.74586 	-7.29864e-15
5 	12.7523 	1.74586 	-7.29864e-15
