0 	3.00586 	-0.317835 	0.302339
0.0505051 	3.00586 	-0.317835 	0.302339
0.10101 	3.80511 	-0.637191 	0.443896
0.151515 	3.80511 	-0.637191 	0.443896
0.20202 	4.60435 	-0.956546 	0.585452
0.252525 	4.60435 	-0.956546 	0.585452
0.30303 	5.33213 	-0.879669 	0.686058
0.353535 	5.33213 	-0.879669 	0.686058
0.40404 	5.99523 	-0.444296 	0.749615
0.454545 	5.99523 	-0.444296 	0.749615
0.505051 	6.6698 	-0.017541 	0.819747
0.555556 	6.6698 	-0.017541 	0.819747
0.606061 	7.56248 	0.245454 	1.01482
0.656566 	7.56248 	0.245454 	1.01482
0.707071 	8.45516 	0.508448 	1.20989
0.757576 	8.45516 	0.508448 	1.20989
0.808081 	8.97001 	0.519895 	1.21924
0.858586 	8.97001 	0.519895 	1.21924
0.909091 	9.20559 	0.345414 	1.09132
0.959596 	9.20559 	0.345414 	1.09132
1.0101 	9.42036 	0.230474 	0.9484
1.06061 	9.42036 	0.230474 	0.9484
1.11111 	9.44787 	0.651391 	0.670404
1.16162 	9.44787 	0.651391 	0.670404
1.21212 	9.47537 	1.07231 	0.392409
1.26263 	9.47537 	1.07231 	0.392409
1.31313 	9.68949 	1.24025 	0.261204
1.36364 	9.68949 	1.24025 	0.261204
1.41414 	10.0156 	1.25641 	0.218073
1.46465 	10.0156 	1.25641 	0.218073
1.51515 	10.3347 	1.22746 	0.178164
1.56566 	10.3347 	1.22746 	0.178164
1.61616 	10.6142 	0.942901 	0.15651
1.66667 	10.6142 	0.942901 	0.15651
1.71717 	10.8938 	0.658339 	0.134857
0 	10.8938 	0.658339 	0.134857
0.0505051 	11.0744 	0.613328 	0.0394416
0.10101 	11.0744 	0.613328 	0.0394416
0.151515 	11.2074 	0.683658 	-0.0914893
0.20202 	11.2074 	0.683658 	-0.0914893
0.252525 	11.4595 	0.737648 	-0.219612
0.30303 	11.4595 	0.737648 	-0.219612
0.353535 	12.1883 	0.726284 	-0.336504
0.40404 	12.1883 	0.726284 	-0.336504
0.454545 	12.9171 	0.71492 	-0.453396
0.505051 	12.9171 	0.71492 	-0.453396
0.555556 	13.1978 	0.655175 	-0.562424
0.606061 	13.1978 	0.655175 	-0.562424
0.656566 	13.3086 	0.577079 	-0.668468
0.707071 	13.3086 	0.577079 	-0.668468
0.757576 	13.3626 	0.488236 	-0.819301
0.808081 	13.3626 	0.488236 	-0.819301
0.858586 	13.2462 	0.367151 	-1.1045
0.909091 	13.2462 	0.367151 	-1.1045
0.959596 	13.1298 	0.246066 	-1.3897
1.0101 	13.1298 	0.246066 	-1.3897
1.06061 	13.0231 	0.16494 	-1.41137
1.11111 	13.0231 	0.16494 	-1.41137
1.16162 	12.9194 	0.095416 	-1.35653
1.21212 	12.9194 	0.095416 	-1.35653
1.26263 	12.821 	0.165355 	-1.20668
1.31313 	12.821 	0.165355 	-1.20668
1.36364 	12.7351 	0.560708 	-0.835146
1.41414 	12.7351 	0.560708 	-0.835146
1.46465 	12.6493 	0.956061 	-0.46361
1.51515 	12.6493 	0.956061 	-0.46361
1.56566 	11.5083 	0.860445 	-0.159648
1.61616 	11.5083 	0.860445 	-0.159648
1.66667 	10.1436 	0.660684 	0.12998
1.71717 	10.1436 	0.660684 	0.12998
1.76768 	8.65228 	0.29905 	0.365535
1.81818 	8.65228 	0.29905 	0.365535
1.86869 	6.92603 	-0.363204 	0.500667
1.91919 	6.92603 	-0.363204 	0.500667
1.9697 	5.19978 	-1.02546 	0.6358
2.0202 	5.19978 	-1.02546 	0.6358
2.07071 	5.56421 	-0.727288 	0.708303
2.12121 	5.56421 	-0.727288 	0.708303
2.17172 	6.22731 	-0.291915 	0.77186
2.22222 	6.22731 	-0.291915 	0.77186
2.27273 	6.98224 	0.0745071 	0.888022
2.32323 	6.98224 	0.0745071 	0.888022
2.37374 	7.87492 	0.337502 	1.08309
2.42424 	7.87492 	0.337502 	1.08309
2.47475 	8.7676 	0.600496 	1.27816
2.52525 	8.7676 	0.600496 	1.27816
2.57576 	9.05246 	0.458826 	1.17447
2.62626 	9.05246 	0.458826 	1.17447
2.67677 	9.28804 	0.284346 	1.04655
2.72727 	9.28804 	0.284346 	1.04655
2.77778 	9.42998 	0.377795 	0.851101
2.82828 	9.42998 	0.377795 	0.851101
2.87879 	9.45749 	0.798713 	0.573106
2.92929 	9.45749 	0.798713 	0.573106
2.9798 	9.485 	1.21963 	0.295111
3.0303 	9.485 	1.21963 	0.295111
3.08081 	9.80362 	1.24591 	0.246108
3.13131 	9.80362 	1.24591 	0.246108
3.18182 	10.1297 	1.26207 	0.202977
3.23232 	10.1297 	1.26207 	0.202977
3.28283 	10.4325 	1.12787 	0.170585
3.33333 	10.4325 	1.12787 	0.170585
1.76768 	10.7121 	0.843304 	0.148932
1.81818 	10.7121 	0.843304 	0.148932
1.86869 	10.988 	0.567614 	0.124547
1.91919 	10.988 	0.567614 	0.124547
1.9697 	11.1209 	0.637944 	-0.0063842
2.0202 	11.1209 	0.637944 	-0.0063842
2.07071 	11.2539 	0.708273 	-0.137315
2.12121 	11.2539 	0.708273 	-0.137315
2.17172 	11.7146 	0.733671 	-0.260525
2.22222 	11.7146 	0.733671 	-0.260525
2.27273 	12.4433 	0.722307 	-0.377417
2.32323 	12.4433 	0.722307 	-0.377417
2.37374 	13.1258 	0.705938 	-0.493495
2.42424 	13.1258 	0.705938 	-0.493495
2.47475 	13.2366 	0.627842 	-0.599539
2.52525 	13.2366 	0.627842 	-0.599539
2.57576 	13.3474 	0.549746 	-0.705583
2.62626 	13.3474 	0.549746 	-0.705583
2.67677 	13.3218 	0.445857 	-0.91912
2.72727 	13.3218 	0.445857 	-0.91912
2.77778 	13.2054 	0.324771 	-1.20432
2.82828 	13.2054 	0.324771 	-1.20432
2.87879 	13.0906 	0.210131 	-1.44701
2.92929 	13.0906 	0.210131 	-1.44701
2.9798 	12.9868 	0.140607 	-1.39217
3.0303 	12.9868 	0.140607 	-1.39217
3.08081 	12.8831 	0.0710825 	-1.33734
3.13131 	12.8831 	0.0710825 	-1.33734
3.18182 	11.9388 	-0.0026276 	-1.00142
3.23232 	11.9388 	-0.0026276 	-1.00142
3.28283 	10.5419 	-0.0785915 	-0.514149
3.33333 	10.5419 	-0.0785915 	-0.514149
3.38384 	9.078 	-0.209634 	-0.0580712
3.43434 	9.078 	-0.209634 	-0.0580712
3.48485 	7.298 	-0.600332 	0.250956
3.53535 	7.298 	-0.600332 	0.250956
3.58586 	5.518 	-0.991031 	0.559983
3.63636 	5.518 	-0.991031 	0.559983
3.68687 	5.44817 	-0.803479 	0.697181
3.73737 	5.44817 	-0.803479 	0.697181
3.78788 	6.11127 	-0.368105 	0.760737
3.83838 	6.11127 	-0.368105 	0.760737
3.88889 	6.82602 	0.028483 	0.853885
3.93939 	6.82602 	0.028483 	0.853885
3.9899 	7.7187 	0.291478 	1.04895
4.0404 	7.7187 	0.291478 	1.04895
4.09091 	8.61138 	0.554472 	1.24402
4.14141 	8.61138 	0.554472 	1.24402
4.19192 	9.01124 	0.48936 	1.19685
4.24242 	9.01124 	0.48936 	1.19685
4.29293 	9.24681 	0.31488 	1.06894
4.34343 	9.24681 	0.31488 	1.06894
4.39394 	9.42517 	0.304134 	0.899751
4.44444 	9.42517 	0.304134 	0.899751
4.49495 	9.45268 	0.725052 	0.621755
4.54545 	9.45268 	0.725052 	0.621755
4.59596 	9.48019 	1.14597 	0.34376
4.64646 	9.48019 	1.14597 	0.34376
4.69697 	9.74656 	1.24308 	0.253656
4.74747 	9.74656 	1.24308 	0.253656
4.79798 	10.0726 	1.25924 	0.210525
4.84848 	10.0726 	1.25924 	0.210525
4.89899 	10.3836 	1.17766 	0.174374
4.94949 	10.3836 	1.17766 	0.174374
5 	10.6632 	0.893102 	0.152721
3.38384 	10.6632 	0.893102 	0.152721
3.43434 	10.9427 	0.60854 	0.131068
3.48485 	10.9427 	0.60854 	0.131068
3.53535 	11.0977 	0.625636 	0.0165287
3.58586 	11.0977 	0.625636 	0.0165287
3.63636 	11.2306 	0.695965 	-0.114402
3.68687 	11.2306 	0.695965 	-0.114402
3.73737 	11.587 	0.735659 	-0.240068
3.78788 	11.587 	0.735659 	-0.240068
3.83838 	12.3158 	0.724295 	-0.35696
3.88889 	12.3158 	0.724295 	-0.35696
3.93939 	13.0446 	0.712931 	-0.473852
3.9899 	13.0446 	0.712931 	-0.473852
4.0404 	13.2172 	0.641508 	-0.580981
4.09091 	13.2172 	0.641508 	-0.580981
4.14141 	13.328 	0.563413 	-0.687026
4.19192 	13.328 	0.563413 	-0.687026
4.24242 	13.3422 	0.467046 	-0.86921
4.29293 	13.3422 	0.467046 	-0.86921
4.34343 	13.2258 	0.345961 	-1.15441
4.39394 	13.2258 	0.345961 	-1.15441
4.44444 	13.1094 	0.224876 	-1.43961
4.49495 	13.1094 	0.224876 	-1.43961
4.54545 	13.005 	0.152774 	-1.40177
4.59596 	13.005 	0.152774 	-1.40177
4.64646 	12.9012 	0.0832493 	-1.34693
4.69697 	12.9012 	0.0832493 	-1.34693
4.74747 	12.7449 	-0.0333783 	-1.06517
4.79798 	12.7449 	-0.0333783 	-1.06517
4.84848 	12.5304 	-0.202067 	-0.532583
4.89899 	12.5304 	-0.202067 	-0.532583
4.94949 	12.3159 	-0.370756 	-9.36597e-15
5 	12.3159 	-0.370756 	-9.36597e-15
