0 	2.94747 	0.681955 	-0.291836
0.0505051 	2.94747 	0.681955 	-0.291836
0.10101 	3.79549 	0.474035 	-0.240505
0.151515 	3.79549 	0.474035 	-0.240505
0.20202 	4.64351 	0.266115 	-0.189175
0.252525 	4.64351 	0.266115 	-0.189175
0.30303 	5.04705 	0.193692 	-0.120322
0.353535 	5.04705 	0.193692 	-0.120322
0.40404 	5.04843 	0.243861 	-0.0356155
0.454545 	5.04843 	0.243861 	-0.0356155
0.505051 	5.06753 	0.308289 	0.0424902
0.555556 	5.06753 	0.308289 	0.0424902
0.606061 	5.42303 	0.643648 	-0.00481592
0.656566 	5.42303 	0.643648 	-0.00481592
0.707071 	5.77854 	0.979007 	-0.052122
0.757576 	5.77854 	0.979007 	-0.052122
0.808081 	6.27751 	0.948567 	-0.103616
0.858586 	6.27751 	0.948567 	-0.103616
0.909091 	6.88252 	0.647755 	-0.158206
0.959596 	6.88252 	0.647755 	-0.158206
1.0101 	7.51744 	0.326332 	-0.237209
1.06061 	7.51744 	0.326332 	-0.237209
1.11111 	8.42153 	-0.180589 	-0.535928
1.16162 	8.42153 	-0.180589 	-0.535928
1.21212 	9.32562 	-0.687511 	-0.834647
1.26263 	9.32562 	-0.687511 	-0.834647
1.31313 	9.91269 	-0.768114 	-0.914907
1.36364 	9.91269 	-0.768114 	-0.914907
1.41414 	10.3095 	-0.592926 	-0.864094
1.46465 	10.3095 	-0.592926 	-0.864094
1.51515 	10.6807 	-0.396839 	-0.760952
1.56566 	10.6807 	-0.396839 	-0.760952
1.61616 	10.9062 	-0.0823295 	-0.361286
1.66667 	10.9062 	-0.0823295 	-0.361286
1.71717 	11.1318 	0.23218 	0.0383805
0 	11.1318 	0.23218 	0.0383805
0.0505051 	11.1709 	0.267552 	0.40887
0.10101 	11.1709 	0.267552 	0.40887
0.151515 	11.1201 	0.168524 	0.765311
0.20202 	11.1201 	0.168524 	0.765311
0.252525 	11.0682 	0.0620369 	1.03359
0.30303 	11.0682 	0.0620369 	1.03359
0.353535 	11.0118 	-0.0742834 	0.949192
0.40404 	11.0118 	-0.0742834 	0.949192
0.454545 	10.9553 	-0.210604 	0.864798
0.505051 	10.9553 	-0.210604 	0.864798
0.555556 	11.0044 	-0.243324 	0.806
0.606061 	11.0044 	-0.243324 	0.806
0.656566 	11.0936 	-0.236747 	0.756912
0.707071 	11.0936 	-0.236747 	0.756912
0.757576 	11.289 	-0.174952 	0.713766
0.808081 	11.289 	-0.174952 	0.713766
0.858586 	11.8031 	0.052497 	0.68845
0.909091 	11.8031 	0.052497 	0.68845
0.959596 	12.3172 	0.279946 	0.663133
1.0101 	12.3172 	0.279946 	0.663133
1.06061 	12.7979 	0.286236 	0.660825
1.11111 	12.7979 	0.286236 	0.660825
1.16162 	13.2689 	0.228319 	0.665197
1.21212 	13.2689 	0.228319 	0.665197
1.26263 	13.5766 	0.184041 	0.658705
1.31313 	13.5766 	0.184041 	0.658705
1.36364 	13.5032 	0.171586 	0.626865
1.41414 	13.5032 	0.171586 	0.626865
1.46465 	13.4297 	0.159131 	0.595024
1.51515 	13.4297 	0.159131 	0.595024
1.56566 	12.1689 	0.343256 	0.265512
1.61616 	12.1689 	0.343256 	0.265512
1.66667 	10.6562 	0.569079 	-0.127143
1.71717 	10.6562 	0.569079 	-0.127143
1.76768 	9.01867 	0.638297 	-0.351601
1.81818 	9.01867 	0.638297 	-0.351601
1.86869 	7.14933 	0.416677 	-0.263691
1.91919 	7.14933 	0.416677 	-0.263691
1.9697 	5.27999 	0.195056 	-0.175781
2.0202 	5.27999 	0.195056 	-0.175781
2.07071 	5.04753 	0.211251 	-0.0906746
2.12121 	5.04753 	0.211251 	-0.0906746
2.17172 	5.04892 	0.26142 	-0.00596828
2.22222 	5.04892 	0.26142 	-0.00596828
2.27273 	5.19195 	0.425665 	0.025933
2.32323 	5.19195 	0.425665 	0.025933
2.37374 	5.54746 	0.761024 	-0.0213731
2.42424 	5.54746 	0.761024 	-0.0213731
2.47475 	5.90297 	1.09638 	-0.0686792
2.52525 	5.90297 	1.09638 	-0.0686792
2.57576 	6.48926 	0.843283 	-0.122723
2.62626 	6.48926 	0.843283 	-0.122723
2.67677 	7.09427 	0.542471 	-0.177312
2.72727 	7.09427 	0.542471 	-0.177312
2.77778 	7.83387 	0.14891 	-0.34176
2.82828 	7.83387 	0.14891 	-0.34176
2.87879 	8.73796 	-0.358012 	-0.640479
2.92929 	8.73796 	-0.358012 	-0.640479
2.9798 	9.64205 	-0.864934 	-0.939198
3.0303 	9.64205 	-0.864934 	-0.939198
3.08081 	10.0516 	-0.706798 	-0.897123
3.13131 	10.0516 	-0.706798 	-0.897123
3.18182 	10.4484 	-0.53161 	-0.846309
3.23232 	10.4484 	-0.53161 	-0.846309
3.28283 	10.7596 	-0.286761 	-0.621069
3.33333 	10.7596 	-0.286761 	-0.621069
1.76768 	10.9852 	0.0277489 	-0.221403
1.81818 	10.9852 	0.0277489 	-0.221403
1.86869 	11.2038 	0.33192 	0.177183
1.91919 	11.2038 	0.33192 	0.177183
1.9697 	11.1531 	0.232892 	0.533624
2.0202 	11.1531 	0.232892 	0.533624
2.07071 	11.1023 	0.133864 	0.890066
2.12121 	11.1023 	0.133864 	0.890066
2.17172 	11.0485 	0.0143248 	1.00405
2.22222 	11.0485 	0.0143248 	1.00405
2.27273 	10.992 	-0.121995 	0.919654
2.32323 	10.992 	-0.121995 	0.919654
2.37374 	10.9465 	-0.247598 	0.837908
2.42424 	10.9465 	-0.247598 	0.837908
2.47475 	11.0356 	-0.241022 	0.788819
2.52525 	11.0356 	-0.241022 	0.788819
2.57576 	11.1248 	-0.234445 	0.739731
2.62626 	11.1248 	-0.234445 	0.739731
2.67677 	11.4689 	-0.0953449 	0.704906
2.72727 	11.4689 	-0.0953449 	0.704906
2.77778 	11.983 	0.132104 	0.679589
2.82828 	11.983 	0.132104 	0.679589
2.87879 	12.4917 	0.323883 	0.657983
2.92929 	12.4917 	0.323883 	0.657983
2.9798 	12.9628 	0.265966 	0.662355
3.0303 	12.9628 	0.265966 	0.662355
3.08081 	13.4338 	0.208048 	0.666727
3.13131 	13.4338 	0.208048 	0.666727
3.18182 	12.5587 	0.349875 	0.594694
3.23232 	12.5587 	0.349875 	0.594694
3.28283 	10.9588 	0.599256 	0.481519
3.33333 	10.9588 	0.599256 	0.481519
3.38384 	9.31412 	0.75991 	0.349053
3.43434 	9.31412 	0.75991 	0.349053
3.48485 	7.45855 	0.502277 	0.125642
3.53535 	7.45855 	0.502277 	0.125642
3.58586 	5.60299 	0.244643 	-0.0977692
3.63636 	5.60299 	0.244643 	-0.0977692
3.68687 	5.04729 	0.202471 	-0.105498
3.73737 	5.04729 	0.202471 	-0.105498
3.78788 	5.04868 	0.25264 	-0.0207919
3.83838 	5.04868 	0.25264 	-0.0207919
3.88889 	5.12974 	0.366977 	0.0342116
3.93939 	5.12974 	0.366977 	0.0342116
3.9899 	5.48525 	0.702336 	-0.0130945
4.0404 	5.48525 	0.702336 	-0.0130945
4.09091 	5.84075 	1.03769 	-0.0604006
4.14141 	5.84075 	1.03769 	-0.0604006
4.19192 	6.38339 	0.895925 	-0.113169
4.24242 	6.38339 	0.895925 	-0.113169
4.29293 	6.9884 	0.595113 	-0.167759
4.34343 	6.9884 	0.595113 	-0.167759
4.39394 	7.67565 	0.237621 	-0.289485
4.44444 	7.67565 	0.237621 	-0.289485
4.49495 	8.57975 	-0.269301 	-0.588203
4.54545 	8.57975 	-0.269301 	-0.588203
4.59596 	9.48384 	-0.776222 	-0.886922
4.64646 	9.48384 	-0.776222 	-0.886922
4.69697 	9.98214 	-0.737456 	-0.906015
4.74747 	9.98214 	-0.737456 	-0.906015
4.79798 	10.379 	-0.562268 	-0.855201
4.84848 	10.379 	-0.562268 	-0.855201
4.89899 	10.7202 	-0.3418 	-0.69101
4.94949 	10.7202 	-0.3418 	-0.69101
5 	10.9457 	-0.0272903 	-0.291344
3.38384 	10.9457 	-0.0272903 	-0.291344
3.43434 	11.1713 	0.287219 	0.108322
3.48485 	11.1713 	0.287219 	0.108322
3.53535 	11.162 	0.250222 	0.471247
3.58586 	11.162 	0.250222 	0.471247
3.63636 	11.1112 	0.151194 	0.827688
3.68687 	11.1112 	0.151194 	0.827688
3.73737 	11.0583 	0.0381808 	1.01882
3.78788 	11.0583 	0.0381808 	1.01882
3.83838 	11.0019 	-0.0981394 	0.934423
3.88889 	11.0019 	-0.0981394 	0.934423
3.93939 	10.9454 	-0.23446 	0.850029
3.9899 	10.9454 	-0.23446 	0.850029
4.0404 	11.02 	-0.242173 	0.79741
4.09091 	11.02 	-0.242173 	0.79741
4.14141 	11.1092 	-0.235596 	0.748321
4.19192 	11.1092 	-0.235596 	0.748321
4.24242 	11.379 	-0.135149 	0.709336
4.29293 	11.379 	-0.135149 	0.709336
4.34343 	11.8931 	0.0923006 	0.684019
4.39394 	11.8931 	0.0923006 	0.684019
4.44444 	12.4072 	0.31975 	0.658703
4.49495 	12.4072 	0.31975 	0.658703
4.54545 	12.8803 	0.276101 	0.66159
4.59596 	12.8803 	0.276101 	0.66159
4.64646 	13.3514 	0.218184 	0.665962
4.69697 	13.3514 	0.218184 	0.665962
4.74747 	13.5988 	0.235993 	0.540006
4.79798 	13.5988 	0.235993 	0.540006
4.84848 	13.599 	0.337499 	0.270003
4.89899 	13.599 	0.337499 	0.270003
4.94949 	13.5993 	0.439005 	4.74825e-15
5 	13.5993 	0.439005 	4.74825e-15
