0 	2.83946 	-0.297833 	0.286967
0.0505051 	2.83946 	-0.297833 	0.286967
0.10101 	3.81404 	-0.158873 	0.268385
0.151515 	3.81404 	-0.158873 	0.268385
0.20202 	4.78862 	-0.0199124 	0.249803
0.252525 	4.78862 	-0.0199124 	0.249803
0.30303 	5.39301 	0.0699336 	0.224525
0.353535 	5.39301 	0.0699336 	0.224525
0.40404 	5.66247 	0.115343 	0.19319
0.454545 	5.66247 	0.115343 	0.19319
0.505051 	5.92547 	0.151654 	0.161618
0.555556 	5.92547 	0.151654 	0.161618
0.606061 	6.06571 	0.0151127 	0.125557
0.656566 	6.06571 	0.0151127 	0.125557
0.707071 	6.20595 	-0.121429 	0.0894969
0.757576 	6.20595 	-0.121429 	0.0894969
0.808081 	6.51347 	-0.222063 	0.0870149
0.858586 	6.51347 	-0.222063 	0.0870149
0.909091 	6.94463 	-0.296155 	0.109352
0.959596 	6.94463 	-0.296155 	0.109352
1.0101 	7.37664 	-0.355614 	0.157614
1.06061 	7.37664 	-0.355614 	0.157614
1.11111 	7.81637 	-0.283362 	0.439211
1.16162 	7.81637 	-0.283362 	0.439211
1.21212 	8.25609 	-0.21111 	0.720808
1.26263 	8.25609 	-0.21111 	0.720808
1.31313 	8.73675 	-0.0211657 	0.761649
1.36364 	8.73675 	-0.0211657 	0.761649
1.41414 	9.24197 	0.239393 	0.658036
1.46465 	9.24197 	0.239393 	0.658036
1.51515 	9.63686 	0.418666 	0.538166
1.56566 	9.63686 	0.418666 	0.538166
1.61616 	9.40659 	0.137316 	0.326172
1.66667 	9.40659 	0.137316 	0.326172
1.71717 	9.17631 	-0.144035 	0.114179
0 	9.17631 	-0.144035 	0.114179
0.0505051 	9.02208 	-0.153272 	-0.0278927
0.10101 	9.02208 	-0.153272 	-0.0278927
0.151515 	8.90447 	-0.0314914 	-0.136299
0.20202 	8.90447 	-0.0314914 	-0.136299
0.252525 	8.97638 	0.0776182 	-0.276455
0.30303 	8.97638 	0.0776182 	-0.276455
0.353535 	9.80641 	0.136045 	-0.543609
0.40404 	9.80641 	0.136045 	-0.543609
0.454545 	10.6364 	0.194471 	-0.810764
0.505051 	10.6364 	0.194471 	-0.810764
0.555556 	11.1416 	0.204534 	-0.779924
0.606061 	11.1416 	0.204534 	-0.779924
0.656566 	11.5236 	0.196252 	-0.636051
0.707071 	11.5236 	0.196252 	-0.636051
0.757576 	11.866 	0.288178 	-0.447503
0.808081 	11.866 	0.288178 	-0.447503
0.858586 	12.0897 	0.680725 	-0.124929
0.909091 	12.0897 	0.680725 	-0.124929
0.959596 	12.3134 	1.07327 	0.197645
1.0101 	12.3134 	1.07327 	0.197645
1.06061 	12.4194 	0.921637 	0.40702
1.11111 	12.4194 	0.921637 	0.40702
1.16162 	12.4913 	0.612013 	0.583531
1.21212 	12.4913 	0.612013 	0.583531
1.26263 	12.555 	0.268747 	0.723581
1.31313 	12.555 	0.268747 	0.723581
1.36364 	12.5996 	-0.153015 	0.778557
1.41414 	12.5996 	-0.153015 	0.778557
1.46465 	12.6442 	-0.574777 	0.833533
1.51515 	12.6442 	-0.574777 	0.833533
1.56566 	11.3798 	-0.678079 	0.761177
1.61616 	11.3798 	-0.678079 	0.761177
1.66667 	9.83777 	-0.713829 	0.661812
1.71717 	9.83777 	-0.713829 	0.661812
1.76768 	8.32862 	-0.626316 	0.546846
1.81818 	8.32862 	-0.626316 	0.546846
1.86869 	6.88058 	-0.309888 	0.402907
1.91919 	6.88058 	-0.309888 	0.402907
1.9697 	5.43255 	0.00654032 	0.258969
2.0202 	5.43255 	0.00654032 	0.258969
2.07071 	5.48732 	0.0858268 	0.213558
2.12121 	5.48732 	0.0858268 	0.213558
2.17172 	5.75678 	0.131236 	0.182222
2.22222 	5.75678 	0.131236 	0.182222
2.27273 	5.97455 	0.103865 	0.148997
2.32323 	5.97455 	0.103865 	0.148997
2.37374 	6.11479 	-0.0326769 	0.112936
2.42424 	6.11479 	-0.0326769 	0.112936
2.47475 	6.25503 	-0.169218 	0.0768758
2.52525 	6.25503 	-0.169218 	0.0768758
2.57576 	6.66437 	-0.247995 	0.0948327
2.62626 	6.66437 	-0.247995 	0.0948327
2.67677 	7.09553 	-0.322088 	0.117169
2.72727 	7.09553 	-0.322088 	0.117169
2.77778 	7.53054 	-0.330326 	0.256173
2.82828 	7.53054 	-0.330326 	0.256173
2.87879 	7.97027 	-0.258074 	0.53777
2.92929 	7.97027 	-0.258074 	0.53777
2.9798 	8.41 	-0.185821 	0.819367
3.0303 	8.41 	-0.185821 	0.819367
3.08081 	8.91358 	0.07003 	0.725384
3.13131 	8.91358 	0.07003 	0.725384
3.18182 	9.41879 	0.330589 	0.621771
3.23232 	9.41879 	0.330589 	0.621771
3.28283 	9.55627 	0.320193 	0.463968
3.33333 	9.55627 	0.320193 	0.463968
1.76768 	9.32599 	0.038843 	0.251975
1.81818 	9.32599 	0.038843 	0.251975
1.86869 	9.09853 	-0.232429 	0.0425712
1.91919 	9.09853 	-0.232429 	0.0425712
1.9697 	8.98092 	-0.110649 	-0.0658349
2.0202 	8.98092 	-0.110649 	-0.0658349
2.07071 	8.8633 	0.0111317 	-0.174241
2.12121 	8.8633 	0.0111317 	-0.174241
2.17172 	9.26689 	0.0980674 	-0.369959
2.22222 	9.26689 	0.0980674 	-0.369959
2.27273 	10.0969 	0.156494 	-0.637113
2.32323 	10.0969 	0.156494 	-0.637113
2.37374 	10.8934 	0.209917 	-0.873441
2.42424 	10.8934 	0.209917 	-0.873441
2.47475 	11.2753 	0.201635 	-0.729568
2.52525 	11.2753 	0.201635 	-0.729568
2.57576 	11.6573 	0.193353 	-0.585696
2.62626 	11.6573 	0.193353 	-0.585696
2.67677 	11.9443 	0.425569 	-0.334602
2.72727 	11.9443 	0.425569 	-0.334602
2.77778 	12.168 	0.818117 	-0.0120281
2.82828 	12.168 	0.818117 	-0.0120281
2.87879 	12.3727 	1.12289 	0.292288
2.92929 	12.3727 	1.12289 	0.292288
2.9798 	12.4446 	0.813269 	0.468799
3.0303 	12.4446 	0.813269 	0.468799
3.08081 	12.5165 	0.503644 	0.64531
3.13131 	12.5165 	0.503644 	0.64531
3.18182 	11.7417 	0.158265 	0.736706
3.23232 	11.7417 	0.158265 	0.736706
3.28283 	10.5109 	-0.206366 	0.782272
3.33333 	10.5109 	-0.206366 	0.782272
3.38384 	9.19545 	-0.468066 	0.778933
3.43434 	9.19545 	-0.468066 	0.778933
3.48485 	7.48071 	-0.244518 	0.545039
3.53535 	7.48071 	-0.244518 	0.545039
3.58586 	5.76597 	-0.0209704 	0.311144
3.63636 	5.76597 	-0.0209704 	0.311144
3.68687 	5.44017 	0.0778802 	0.219041
3.73737 	5.44017 	0.0778802 	0.219041
3.78788 	5.70963 	0.123289 	0.187706
3.83838 	5.70963 	0.123289 	0.187706
3.88889 	5.95001 	0.127759 	0.155307
3.93939 	5.95001 	0.127759 	0.155307
3.9899 	6.09025 	-0.00878211 	0.119247
4.0404 	6.09025 	-0.00878211 	0.119247
4.09091 	6.23049 	-0.145324 	0.0831864
4.14141 	6.23049 	-0.145324 	0.0831864
4.19192 	6.58892 	-0.235029 	0.0909238
4.24242 	6.58892 	-0.235029 	0.0909238
4.29293 	7.02008 	-0.309122 	0.113261
4.34343 	7.02008 	-0.309122 	0.113261
4.39394 	7.45359 	-0.34297 	0.206894
4.44444 	7.45359 	-0.34297 	0.206894
4.49495 	7.89332 	-0.270718 	0.488491
4.54545 	7.89332 	-0.270718 	0.488491
4.59596 	8.33305 	-0.198466 	0.770088
4.64646 	8.33305 	-0.198466 	0.770088
4.69697 	8.82516 	0.0244322 	0.743517
4.74747 	8.82516 	0.0244322 	0.743517
4.79798 	9.33038 	0.284991 	0.639904
4.84848 	9.33038 	0.284991 	0.639904
4.89899 	9.59656 	0.36943 	0.501067
4.94949 	9.59656 	0.36943 	0.501067
5 	9.36629 	0.0880793 	0.289074
3.38384 	9.36629 	0.0880793 	0.289074
3.43434 	9.13602 	-0.193271 	0.0770804
3.48485 	9.13602 	-0.193271 	0.0770804
3.53535 	9.0015 	-0.13196 	-0.0468638
3.58586 	9.0015 	-0.13196 	-0.0468638
3.63636 	8.88389 	-0.0101798 	-0.15527
3.68687 	8.88389 	-0.0101798 	-0.15527
3.73737 	9.12164 	0.0878428 	-0.323207
3.78788 	9.12164 	0.0878428 	-0.323207
3.83838 	9.95167 	0.146269 	-0.590361
3.88889 	9.95167 	0.146269 	-0.590361
3.93939 	10.7817 	0.204695 	-0.857516
3.9899 	10.7817 	0.204695 	-0.857516
4.0404 	11.2085 	0.203085 	-0.754746
4.09091 	11.2085 	0.203085 	-0.754746
4.14141 	11.5904 	0.194803 	-0.610873
4.19192 	11.5904 	0.194803 	-0.610873
4.24242 	11.9051 	0.356874 	-0.391053
4.29293 	11.9051 	0.356874 	-0.391053
4.34343 	12.1288 	0.749421 	-0.0684786
4.39394 	12.1288 	0.749421 	-0.0684786
4.44444 	12.3525 	1.14197 	0.254095
4.49495 	12.3525 	1.14197 	0.254095
4.54545 	12.432 	0.867453 	0.43791
4.59596 	12.432 	0.867453 	0.43791
4.64646 	12.5039 	0.557829 	0.61442
4.69697 	12.5039 	0.557829 	0.61442
4.74747 	12.7065 	0.271248 	0.571385
4.79798 	12.7065 	0.271248 	0.571385
4.84848 	13.0535 	0.0101375 	0.285692
4.89899 	13.0535 	0.0101375 	0.285692
4.94949 	13.4005 	-0.250973 	5.02417e-15
5 	13.4005 	-0.250973 	5.02417e-15
