0 	0 	0 	0
0.0505051 	0 	0 	0
0.10101 	1.65916 	0.0749463 	0.0717558
0.151515 	1.65916 	0.0749463 	0.0717558
0.20202 	3.31831 	0.149893 	0.143512
0.252525 	3.31831 	0.149893 	0.143512
0.30303 	4.4899 	0.292774 	0.184806
0.353535 	4.4899 	0.292774 	0.184806
0.40404 	5.22034 	0.497121 	0.19854
0.454545 	5.22034 	0.497121 	0.19854
0.505051 	5.94517 	0.687295 	0.201022
0.555556 	5.94517 	0.687295 	0.201022
0.606061 	6.56335 	0.608179 	-0.0103008
0.656566 	6.56335 	0.608179 	-0.0103008
0.707071 	7.18154 	0.529064 	-0.221624
0.757576 	7.18154 	0.529064 	-0.221624
0.858586 	7.73181 	0.402724 	-0.280861
0.909091 	7.73181 	0.402724 	-0.280861
0.959596 	8.23187 	0.241478 	-0.227687
1.0101 	8.23187 	0.241478 	-0.227687
1.06061 	8.67594 	0.110731 	-0.134779
1.11111 	8.67594 	0.110731 	-0.134779
1.16162 	8.61597 	0.254469 	0.315736
1.21212 	8.61597 	0.254469 	0.315736
1.26263 	8.55601 	0.398208 	0.766251
1.31313 	8.55601 	0.398208 	0.766251
1.36364 	8.86332 	0.239745 	1.01475
1.41414 	8.86332 	0.239745 	1.01475
1.46465 	9.391 	-0.10004 	1.14203
1.51515 	9.391 	-0.10004 	1.14203
1.56566 	9.92157 	-0.428575 	1.21983
1.61616 	9.92157 	-0.428575 	1.21983
1.66667 	10.4685 	-0.693355 	1.01725
1.71717 	11.0155 	-0.958135 	0.814658
0 	11.0155 	-0.958135 	0.814658
0.0505051 	11.1561 	-0.716578 	0.861125
0.10101 	11.101 	-0.23123 	1.02751
0.151515 	11.101 	-0.23123 	1.02751
0.20202 	11.0594 	0.178175 	1.17396
0.252525 	11.0594 	0.178175 	1.17396
0.30303 	11.0713 	0.283806 	1.24073
0.353535 	11.0713 	0.283806 	1.24073
0.40404 	11.0832 	0.389438 	1.3075
0.454545 	11.0832 	0.389438 	1.3075
0.505051 	11.2465 	0.334952 	1.06428
0.555556 	11.2465 	0.334952 	1.06428
0.606061 	11.4672 	0.219731 	0.703495
0.656566 	11.4672 	0.219731 	0.703495
0.707071 	11.71 	0.136695 	0.40095
0.757576 	11.71 	0.136695 	0.40095
0.808081 	12.0191 	0.150208 	0.273143
0.858586 	12.0191 	0.150208 	0.273143
0.959596 	12.3282 	0.163721 	0.145336
1.0101 	12.3282 	0.163721 	0.145336
1.06061 	12.371 	-0.0997089 	0.0570231
1.11111 	12.371 	-0.0997089 	0.0570231
1.16162 	12.3365 	-0.443542 	-0.0198239
1.21212 	12.3365 	-0.443542 	-0.0198239
1.26263 	12.0879 	-0.750053 	-0.0874128
1.31313 	12.0879 	-0.750053 	-0.0874128
1.36364 	11.3397 	-0.969476 	-0.133399
1.41414 	11.3397 	-0.969476 	-0.133399
1.46465 	10.5915 	-1.1889 	-0.179385
1.51515 	10.5915 	-1.1889 	-0.179385
1.56566 	10.0179 	-0.910681 	-0.028395
1.61616 	10.0179 	-0.910681 	-0.028395
1.66667 	9.48118 	-0.526903 	0.164378
1.71717 	9.48118 	-0.526903 	0.164378
1.76768 	9.04721 	-0.146494 	0.304353
1.81818 	9.04721 	-0.146494 	0.304353
1.86869 	8.80394 	0.227658 	0.346274
1.91919 	8.80394 	0.227658 	0.346274
1.9697 	8.56068 	0.601809 	0.388195
2.0202 	8.56068 	0.601809 	0.388195
2.07071 	8.17778 	0.657406 	0.313058
2.12121 	8.17778 	0.657406 	0.313058
2.17172 	7.77493 	0.667496 	0.221197
2.22222 	7.77493 	0.667496 	0.221197
2.27273 	7.56117 	0.597377 	0.05111
2.32323 	7.56117 	0.597377 	0.05111
2.37374 	7.63107 	0.406945 	-0.236317
2.42424 	7.63107 	0.406945 	-0.236317
2.47475 	7.70096 	0.216514 	-0.523743
2.52525 	7.70096 	0.216514 	-0.523743
2.57576 	7.81434 	0.151084 	-0.492648
2.62626 	7.81434 	0.151084 	-0.492648
2.67677 	7.93124 	0.0957889 	-0.435726
2.72727 	7.93124 	0.0957889 	-0.435726
2.77778 	7.99935 	0.0688615 	-0.188906
2.82828 	7.99935 	0.0688615 	-0.188906
2.87879 	8.00784 	0.0766054 	0.290013
2.92929 	8.00784 	0.0766054 	0.290013
2.9798 	8.01632 	0.0843493 	0.768931
3.0303 	8.01632 	0.0843493 	0.768931
3.08081 	8.76934 	-0.408171 	0.757996
3.13131 	8.76934 	-0.408171 	0.757996
3.18182 	9.54145 	-0.913519 	0.7345
3.23232 	9.54145 	-0.913519 	0.7345
3.28283 	10.1705 	-1.12679 	0.700105
3.33333 	10.1705 	-1.12679 	0.700105
1.76768 	10.6565 	-1.04798 	0.654811
1.81818 	10.6565 	-1.04798 	0.654811
1.86869 	11.1238 	-0.955571 	0.618562
1.91919 	11.1238 	-0.955571 	0.618562
1.9697 	10.8639 	-0.332982 	0.935044
2.0202 	10.8639 	-0.332982 	0.935044
2.07071 	10.604 	0.289608 	1.25153
2.12121 	10.604 	0.289608 	1.25153
2.17172 	10.5479 	0.55059 	1.41699
2.22222 	10.5479 	0.55059 	1.41699
2.27273 	10.6585 	0.515711 	1.4589
2.32323 	10.6585 	0.515711 	1.4589
2.37374 	10.7814 	0.473885 	1.47669
2.42424 	10.7814 	0.473885 	1.47669
2.47475 	11.0552 	0.346373 	1.19701
2.52525 	11.0552 	0.346373 	1.19701
2.57576 	11.329 	0.218861 	0.917328
2.62626 	11.329 	0.218861 	0.917328
2.67677 	11.507 	0.218032 	0.841168
2.72727 	11.507 	0.218032 	0.841168
2.77778 	11.6213 	0.301658 	0.900689
2.82828 	11.6213 	0.301658 	0.900689
2.87879 	11.7598 	0.35472 	0.987922
2.92929 	11.7598 	0.35472 	0.987922
2.9798 	12.0683 	0.193835 	1.26914
3.0303 	12.0683 	0.193835 	1.26914
3.08081 	12.3767 	0.0329509 	1.55035
3.13131 	12.3767 	0.0329509 	1.55035
3.18182 	11.9516 	-0.096326 	1.49262
3.23232 	11.9516 	-0.096326 	1.49262
3.28283 	11.1315 	-0.208584 	1.25237
3.33333 	11.1315 	-0.208584 	1.25237
3.38384 	10.2118 	-0.27942 	0.963918
3.43434 	10.2118 	-0.27942 	0.963918
3.48485 	8.82195 	-0.154984 	0.448192
3.53535 	8.82195 	-0.154984 	0.448192
3.58586 	7.43213 	-0.0305489 	-0.0675348
3.63636 	7.43213 	-0.0305489 	-0.0675348
3.68687 	6.97671 	0.0585906 	-0.340326
3.73737 	6.97671 	0.0585906 	-0.340326
3.78788 	6.92175 	0.132603 	-0.509002
3.83838 	6.92175 	0.132603 	-0.509002
3.88889 	6.96964 	0.187658 	-0.684527
3.93939 	6.96964 	0.187658 	-0.684527
3.9899 	7.37176 	0.177412 	-0.883642
4.0404 	7.37176 	0.177412 	-0.883642
4.09091 	7.77389 	0.167165 	-1.08276
4.14141 	7.77389 	0.167165 	-1.08276
4.19192 	7.95677 	0.119603 	-0.991742
4.24242 	7.95677 	0.119603 	-0.991742
4.29293 	8.06658 	0.059601 	-0.80402
4.34343 	8.06658 	0.059601 	-0.80402
4.39394 	8.13614 	0.0163632 	-0.545069
4.44444 	8.13614 	0.0163632 	-0.545069
4.49495 	8.0996 	0.0173209 	-0.0983368
4.54545 	8.0996 	0.0173209 	-0.0983368
4.59596 	8.06306 	0.0182786 	0.348396
4.64646 	8.06306 	0.0182786 	0.348396
4.69697 	8.58699 	-0.35271 	0.448235
4.74747 	8.58699 	-0.35271 	0.448235
4.79798 	9.25103 	-0.816686 	0.46135
4.84848 	9.25103 	-0.816686 	0.46135
4.89899 	9.82758 	-1.07364 	0.487706
4.94949 	9.82758 	-1.07364 	0.487706
5 	10.2224 	-0.900645 	0.54156
3.38384 	10.2224 	-0.900645 	0.54156
3.43434 	10.6173 	-0.727645 	0.595415
3.48485 	10.6173 	-0.727645 	0.595415
3.53535 	10.5363 	-0.235789 	0.854761
3.58586 	10.5363 	-0.235789 	0.854761
3.63636 	10.3714 	0.312334 	1.15037
3.68687 	10.3714 	0.312334 	1.15037
3.73737 	10.3249 	0.636197 	1.30719
3.78788 	10.3249 	0.636197 	1.30719
3.83838 	10.4757 	0.586291 	1.23268
3.88889 	10.4757 	0.586291 	1.23268
3.93939 	10.6266 	0.536384 	1.15818
3.9899 	10.6266 	0.536384 	1.15818
4.0404 	10.7552 	0.493104 	0.99378
4.09091 	10.7552 	0.493104 	0.99378
4.14141 	10.8815 	0.450559 	0.81939
4.19192 	10.8815 	0.450559 	0.81939
4.24242 	11.0469 	0.391397 	0.681294
4.29293 	11.0469 	0.391397 	0.681294
4.34343 	11.2654 	0.309753 	0.592301
4.39394 	11.2654 	0.309753 	0.592301
4.44444 	11.484 	0.228109 	0.503308
4.49495 	11.484 	0.228109 	0.503308
4.54545 	11.8313 	0.053429 	0.534056
4.59596 	11.8313 	0.053429 	0.534056
4.64646 	12.1854 	-0.126147 	0.571107
4.69697 	12.1854 	-0.126147 	0.571107
4.74747 	12.4468 	-0.282242 	0.477219
4.79798 	12.4468 	-0.282242 	0.477219
4.84848 	12.6059 	-0.412385 	0.238609
4.89899 	12.6059 	-0.412385 	0.238609
4.94949 	12.765 	-0.542528 	4.19617e-15
5 	12.765 	-0.542528 	4.19617e-15
