/*--------------------------------*- C++ -*----------------------------------*\
| =========                 |                                                 |
| \\      /  F ield         | OpenFOAM: The Open Source CFD Toolbox           |
|  \\    /   O peration     | Version:  dev                                   |
|   \\  /    A nd           | Web:      www.OpenFOAM.org                      |
|    \\/     M anipulation  |                                                 |
\*---------------------------------------------------------------------------*/
FoamFile
{
    version     2.0;
    format      ascii;
    class       volVectorField;
    location    "0";
    object      U;
}
// * * * * * * * * * * * * * * * * * * * * * * * * * * * * * * * * * * * * * //

dimensions      [0 1 -1 0 0 0 0];

internalField   uniform (0 0 0);

boundaryField
{
    auto0
    {
        type            fixedValue;
        value           uniform (0 0 0);
    }
    auto1
    {
        type            zeroGradient;
    }
    auto2
    {
        type            fixedValue;
        value           uniform (0 1 0);
    }
    auto3
    {
        type            fixedValue;
        value           nonuniform List<vector> 
255
(
(-0.49351575 0 0)
(-0.48494685 0 0)
(-0.18483763 0 0)
(-0.17325015 0 0)
(-0.18195761 0 0)
(-0.48003048 0 0)
(-0.77965025 0 0)
(-0.32313953 0 0)
(-0.38017651 0 0)
(-0.52562047 0 0)
(-0.10507116 0 0)
(-0.16135124 0 0)
(-0.30216375 0 0)
(-0.24305001 0 0)
(-0.55307663 0 0)
(-0.93130312 0 0)
(-0.74997139 0 0)
(-0.62663251 0 0)
(-0.7527815 0 0)
(-0.8137967 0 0)
(-0.66796479 0 0)
(-0.13810792 0 0)
(-0.55162152 0 0)
(-0.67942452 0 0)
(-0.10478163 0 0)
(-0.32846049 0 0)
(-0.61643605 0 0)
(-0.19272728 0 0)
(-0.88651586 0 0)
(-0.52610757 0 0)
(-0.73087777 0 0)
(-0.17898241 0 0)
(-0.77994244 0 0)
(-0.77922414 0 0)
(-0.77725433 0 0)
(-0.1800225 0 0)
(-0.836398 0 0)
(-0.61467506 0 0)
(-0.19896821 0 0)
(-0.43998393 0 0)
(-0.52208954 0 0)
(-0.22192335 0 0)
(-0.73641927 0 0)
(-0.55858566 0 0)
(-0.52375448 0 0)
(-0.73361134 0 0)
(-0.6982129 0 0)
(-0.179996 0 0)
(-0.99009034 0 0)
(-0.40149516 0 0)
(-0.43295619 0 0)
(-0.38600698 0 0)
(-0.40630575 0 0)
(-0.3568872 0 0)
(-0.33621997 0 0)
(-0.43568667 0 0)
(-0.55661317 0 0)
(-0.31483788 0 0)
(-0.48721084 0 0)
(-0.62399003 0 0)
(-0.86662373 0 0)
(-0.91886646 0 0)
(-0.50406493 0 0)
(-0.16188011 0 0)
(-0.22491867 0 0)
(-0.96026029 0 0)
(-0.89278103 0 0)
(-0.22834955 0 0)
(-0.68535691 0 0)
(-0.76007631 0 0)
(-0.57327356 0 0)
(-0.72354368 0 0)
(-0.68324855 0 0)
(-0.39366677 0 0)
(-0.63330559 0 0)
(-0.87176315 0 0)
(-0.99038277 0 0)
(-0.69505232 0 0)
(-0.077568859 0 0)
(-0.16853234 0 0)
(-0.81966961 0 0)
(-0.094650368 0 0)
(-0.20348279 0 0)
(-0.10715004 0 0)
(-0.93089265 0 0)
(-0.93469743 0 0)
(-0.59905705 0 0)
(-0.47449101 0 0)
(-0.65689111 0 0)
(-0.92928747 0 0)
(-0.095115656 0 0)
(-0.48246941 0 0)
(-0.40770523 0 0)
(-0.51981726 0 0)
(-0.12322972 0 0)
(-0.86371465 0 0)
(-0.12626016 0 0)
(-0.34277975 0 0)
(-0.8811303 0 0)
(-0.19699351 0 0)
(-0.074990493 0 0)
(-0.67320934 0 0)
(-0.90000271 0 0)
(-0.33210777 0 0)
(-0.23166149 0 0)
(-0.66562216 0 0)
(-0.34140223 0 0)
(-0.53236812 0 0)
(-0.46853402 0 0)
(-0.092055049 0 0)
(-0.62224665 0 0)
(-0.67798453 0 0)
(-0.86543784 0 0)
(-0.8581008 0 0)
(-0.11900153 0 0)
(-0.11474489 0 0)
(-0.24178767 0 0)
(-0.52261301 0 0)
(-0.99057707 0 0)
(-0.38987072 0 0)
(-0.72201976 0 0)
(-0.30501066 0 0)
(-0.94121927 0 0)
(-0.59666103 0 0)
(-0.66033761 0 0)
(-0.80883613 0 0)
(-0.11258333 0 0)
(-0.73033985 0 0)
(-0.62544773 0 0)
(-0.085687684 0 0)
(-0.81790359 0 0)
(-0.8433943 0 0)
(-0.17796168 0 0)
(-0.65761338 0 0)
(-0.66490545 0 0)
(-0.81783609 0 0)
(-0.65447837 0 0)
(-0.24273458 0 0)
(-0.87365434 0 0)
(-0.21351484 0 0)
(-0.17703519 0 0)
(-0.63637176 0 0)
(-0.10780092 0 0)
(-0.2294236 0 0)
(-0.50326257 0 0)
(-0.39111236 0 0)
(-0.34490769 0 0)
(-0.10780092 0 0)
(-0.09328824 0 0)
(-0.08535825 0 0)
(-0.93392154 0 0)
(-0.47205148 0 0)
(-0.43976007 0 0)
(-0.075576546 0 0)
(-0.80543206 0 0)
(-0.095008694 0 0)
(-0.17437801 0 0)
(-0.9323894 0 0)
(-0.88164606 0 0)
(-0.11404628 0 0)
(-0.93422225 0 0)
(-0.76391341 0 0)
(-0.34090247 0 0)
(-0.076770824 0 0)
(-0.34286875 0 0)
(-0.093944048 0 0)
(-0.84114107 0 0)
(-0.67101972 0 0)
(-0.12772715 0 0)
(-0.092432739 0 0)
(-0.5019052 0 0)
(-0.84171807 0 0)
(-0.52960395 0 0)
(-0.088470468 0 0)
(-0.50731887 0 0)
(-0.34087521 0 0)
(-0.93381096 0 0)
(-0.65012387 0 0)
(-0.41408163 0 0)
(-0.75678453 0 0)
(-0.35128177 0 0)
(-0.75404764 0 0)
(-0.96165268 0 0)
(-0.51724681 0 0)
(-0.34292364 0 0)
(-0.81155673 0 0)
(-0.091811473 0 0)
(-0.83976694 0 0)
(-0.44657804 0 0)
(-0.98963727 0 0)
(-0.99051687 0 0)
(-0.42104671 0 0)
(-0.32103945 0 0)
(-0.31319299 0 0)
(-0.62442565 0 0)
(-0.19727103 0 0)
(-0.8313102 0 0)
(-0.78546662 0 0)
(-0.60129132 0 0)
(-0.66928083 0 0)
(-0.50433339 0 0)
(-0.46180023 0 0)
(-0.85182395 0 0)
(-0.0950704 0 0)
(-0.53132336 0 0)
(-0.083696177 0 0)
(-0.08418012 0 0)
(-0.44183084 0 0)
(-0.7379693 0 0)
(-0.88726818 0 0)
(-0.93681399 0 0)
(-0.6238081 0 0)
(-0.18082886 0 0)
(-0.44012561 0 0)
(-0.17355111 0 0)
(-0.9641069 0 0)
(-0.8749214 0 0)
(-0.19915175 0 0)
(-0.31938633 0 0)
(-0.16153424 0 0)
(-0.81441322 0 0)
(-0.20382412 0 0)
(-0.93406476 0 0)
(-0.3068661 0 0)
(-0.54953229 0 0)
(-0.32122172 0 0)
(-0.96191222 0 0)
(-0.72187572 0 0)
(-0.38859157 0 0)
(-0.22227315 0 0)
(-0.1810889 0 0)
(-0.98965515 0 0)
(-0.96061541 0 0)
(-0.50431311 0 0)
(-0.71788914 0 0)
(-0.71826338 0 0)
(-0.96188282 0 0)
(-0.077568868 0 0)
(-0.34828503 0 0)
(-0.6344028 0 0)
(-0.38759304 0 0)
(-0.0889502 0 0)
(-0.32216666 0 0)
(-0.52538004 0 0)
(-0.8657095 0 0)
(-0.59638456 0 0)
(-0.1735511 0 0)
(-0.39491209 0 0)
(-0.22904915 0 0)
(-0.094361592 0 0)
(-0.1258519 0 0)
(-0.3835524 0 0)
(-0.48328912 0 0)
(-0.22542886 0 0)
(-0.39134715 0 0)
)
;
    }
}


// ************************************************************************* //
