/*--------------------------------*- C++ -*----------------------------------*\
| =========                 |                                                 |
| \\      /  F ield         | OpenFOAM: The Open Source CFD Toolbox           |
|  \\    /   O peration     | Version:  4.x                                   |
|   \\  /    A nd           | Web:      www.OpenFOAM.org                      |
|    \\/     M anipulation  |                                                 |
\*---------------------------------------------------------------------------*/
FoamFile
{
    version     2.0;
    format      ascii;
    class       volScalarField;
    location    "0";
    object      epsilon;
}
// * * * * * * * * * * * * * * * * * * * * * * * * * * * * * * * * * * * * * //

dimensions      [0 2 -3 0 0 0 0];

internalField   uniform 9.12870929175277E-006;

boundaryField
{
   inlet
   {
        type            timeVaryingMappedFixedValue;
        setAverage      0;
        offset          0;
        value           nonuniform List<scalar> 
479
(
0.1204966218
0.0603652702
0.0403070257
0.0302672682
0.0242350723
0.0202067953
0.0173237322
0.0151565297
0.0134666575
0.0121109969
0.0109984716
0.0100683637
0.0092786372
0.0085992658
0.00800823
0.0074890147
0.0070289902
0.0066183333
0.0062492884
0.0059156506
0.0056123967
0.0053354165
0.0050813143
0.0048472602
0.0046308767
0.0044301519
0.0042433717
0.0040690666
0.0039059698
0.0037529828
0.003609149
0.0034736311
0.0033456928
0.0032246847
0.0031100311
0.0030012203
0.0028977955
0.0027993481
0.0027055111
0.002615954
0.0025303785
0.0024485145
0.0023701168
0.0022949626
0.0022228485
0.0021535887
0.0020870132
0.002022966
0.0019613035
0.0019018938
0.001844615
0.0017893545
0.0017360081
0.0016844791
0.001634678
0.0015865211
0.001539931
0.0014948352
0.001451166
0.0014088603
0.0013678589
0.0013281064
0.0012895506
0.0012521427
0.0012158368
0.0011805896
0.0011463603
0.0011131103
0.0010808035
0.0010494053
0.0010188833
0.0009892068
0.0009603464
0.0009322746
0.0009049649
0.0008783925
0.0008525335
0.0008273652
0.0008028662
0.0007790157
0.0007557942
0.000733183
0.0007111639
0.0006897201
0.0006688349
0.0006484926
0.0006286783
0.0006093774
0.000590576
0.0005722608
0.000554419
0.0005370382
0.0005201066
0.0005036127
0.0004875455
0.0004718944
0.0004566491
0.0004417998
0.0004273368
0.000413251
0.0003995334
0.0003861753
0.0003731684
0.0003605045
0.0003481758
0.0003361747
0.0003244937
0.0003131258
0.0003020638
0.000291301
0.0002808308
0.0002706468
0.0002607428
0.0002511126
0.0002417504
0.0002326504
0.0002238068
0.0002152144
0.0002068676
0.0001987612
0.0001908902
0.0001832495
0.0001758342
0.0001686396
0.000161661
0.0001548937
0.0001483334
0.0001419756
0.000135816
0.0001298504
0.0001240746
0.0001184846
0.0001130764
0.0001078461
0.0001027898
9.79036623683257E-005
9.31840905313219E-005
8.86273807144351E-005
8.42299368274328E-005
7.998822044359E-005
7.58987487548842E-005
7.19580926135896E-005
6.81628746560439E-005
6.45097675045897E-005
6.09954920439198E-005
5.76168157682565E-005
5.43705511959938E-005
5.12535543486103E-005
4.82627232908344E-005
0.000045395
4.26473526663032E-005
4.00168071081452E-005
3.75004128222145E-005
3.50952581439205E-005
3.2798465829243E-005
3.06071919515094E-005
2.85186248403326E-005
0.00002653
2.46385194314352E-005
2.28415100783628E-005
2.1136263525547E-005
1.952011481811E-005
1.79904256781658E-005
1.65445836914967E-005
0.00001518
1.38941161653E-005
1.26843882024063E-005
1.15483011155087E-005
1.04833606016093E-005
9.48709392089895E-006
9.35721998647572E-006
9.34359382698121E-006
9.33012519534213E-006
9.31681137556096E-006
9.30364971372016E-006
9.29063761621845E-006
9.27777254806705E-006
9.26505203124319E-006
9.25247364309892E-006
0.00000924
9.2277338299533E-006
9.21556782293938E-006
9.20353477775074E-006
9.19163252653155E-006
9.17985894829852E-006
9.16821196768089E-006
9.15668955370088E-006
9.14528971859301E-006
0.000009134
9.12870929175277E-006
9.12870929175277E-006
9.12870929175277E-006
9.12870929175277E-006
9.12870929175277E-006
9.12870929175277E-006
9.12870929175277E-006
9.12870929175277E-006
9.12870929175277E-006
9.12870929175277E-006
9.12870929175277E-006
9.12870929175277E-006
9.12870929175277E-006
9.12870929175277E-006
9.12870929175277E-006
9.12870929175277E-006
9.12870929175277E-006
9.12870929175277E-006
9.12870929175277E-006
9.12870929175277E-006
9.12870929175277E-006
9.12870929175277E-006
9.12870929175277E-006
9.12870929175277E-006
9.12870929175277E-006
9.12870929175277E-006
9.12870929175277E-006
9.12870929175277E-006
9.12870929175277E-006
9.12870929175277E-006
9.12870929175277E-006
9.12870929175277E-006
9.12870929175277E-006
9.12870929175277E-006
9.12870929175277E-006
9.12870929175277E-006
9.12870929175277E-006
9.12870929175277E-006
9.12870929175277E-006
9.12870929175277E-006
9.12870929175277E-006
9.12870929175277E-006
9.12870929175277E-006
9.12870929175277E-006
9.12870929175277E-006
9.12870929175277E-006
9.12870929175277E-006
9.12870929175277E-006
9.12870929175277E-006
9.12870929175277E-006
9.12870929175277E-006
9.12870929175277E-006
9.12870929175277E-006
9.12870929175277E-006
9.12870929175277E-006
9.12870929175277E-006
9.12870929175277E-006
9.12870929175277E-006
9.12870929175277E-006
9.12870929175277E-006
9.12870929175277E-006
9.12870929175277E-006
9.12870929175277E-006
9.12870929175277E-006
9.12870929175277E-006
9.12870929175277E-006
9.12870929175277E-006
9.12870929175277E-006
9.12870929175277E-006
9.12870929175277E-006
9.12870929175277E-006
9.12870929175277E-006
9.12870929175277E-006
9.12870929175277E-006
9.12870929175277E-006
9.12870929175277E-006
9.12870929175277E-006
9.12870929175277E-006
9.12870929175277E-006
9.12870929175277E-006
9.12870929175277E-006
9.12870929175277E-006
9.12870929175277E-006
9.12870929175277E-006
9.12870929175277E-006
9.12870929175277E-006
9.12870929175277E-006
9.12870929175277E-006
9.12870929175277E-006
9.12870929175277E-006
9.12870929175277E-006
9.12870929175277E-006
9.12870929175277E-006
9.12870929175277E-006
9.12870929175277E-006
9.12870929175277E-006
9.12870929175277E-006
9.12870929175277E-006
9.12870929175277E-006
9.12870929175277E-006
9.12870929175277E-006
9.12870929175277E-006
9.12870929175277E-006
9.12870929175277E-006
9.12870929175277E-006
9.12870929175277E-006
9.12870929175277E-006
9.12870929175277E-006
9.12870929175277E-006
9.12870929175277E-006
9.12870929175277E-006
9.12870929175277E-006
9.12870929175277E-006
9.12870929175277E-006
9.12870929175277E-006
9.12870929175277E-006
9.12870929175277E-006
9.12870929175277E-006
9.12870929175277E-006
9.12870929175277E-006
9.12870929175277E-006
9.12870929175277E-006
9.12870929175277E-006
9.12870929175277E-006
9.12870929175277E-006
9.12870929175277E-006
9.12870929175277E-006
9.12870929175277E-006
9.12870929175277E-006
9.12870929175277E-006
9.12870929175277E-006
9.12870929175277E-006
9.12870929175277E-006
9.12870929175277E-006
9.12870929175277E-006
9.12870929175277E-006
9.12870929175277E-006
9.12870929175277E-006
9.12870929175277E-006
9.12870929175277E-006
9.12870929175277E-006
9.12870929175277E-006
9.12870929175277E-006
9.12870929175277E-006
9.12870929175277E-006
9.12870929175277E-006
9.12870929175277E-006
9.12870929175277E-006
9.12870929175277E-006
9.12870929175277E-006
9.12870929175277E-006
9.12870929175277E-006
9.12870929175277E-006
9.12870929175277E-006
9.12870929175277E-006
9.12870929175277E-006
9.12870929175277E-006
9.12870929175277E-006
9.12870929175277E-006
9.12870929175277E-006
9.12870929175277E-006
9.12870929175277E-006
9.12870929175277E-006
9.12870929175277E-006
9.12870929175277E-006
9.12870929175277E-006
9.12870929175277E-006
9.12870929175277E-006
9.12870929175277E-006
9.12870929175277E-006
9.12870929175277E-006
9.12870929175277E-006
9.12870929175277E-006
9.12870929175277E-006
9.12870929175277E-006
9.12870929175277E-006
9.12870929175277E-006
9.12870929175277E-006
9.12870929175277E-006
9.12870929175277E-006
9.12870929175277E-006
9.12870929175277E-006
9.12870929175277E-006
9.12870929175277E-006
9.12870929175277E-006
9.12870929175277E-006
9.12870929175277E-006
9.12870929175277E-006
9.12870929175277E-006
9.12870929175277E-006
9.12870929175277E-006
9.12870929175277E-006
9.12870929175277E-006
9.12870929175277E-006
9.12870929175277E-006
9.12870929175277E-006
9.12870929175277E-006
9.12870929175277E-006
9.12870929175277E-006
9.12870929175277E-006
9.12870929175277E-006
9.12870929175277E-006
9.12870929175277E-006
9.12870929175277E-006
9.12870929175277E-006
9.12870929175277E-006
9.12870929175277E-006
9.12870929175277E-006
9.12870929175277E-006
9.12870929175277E-006
9.12870929175277E-006
9.12870929175277E-006
9.12870929175277E-006
9.12870929175277E-006
9.12870929175277E-006
9.12870929175277E-006
9.12870929175277E-006
9.12870929175277E-006
9.12870929175277E-006
9.12870929175277E-006
9.12870929175277E-006
9.12870929175277E-006
9.12870929175277E-006
9.12870929175277E-006
9.12870929175277E-006
9.12870929175277E-006
9.12870929175277E-006
9.12870929175277E-006
9.12870929175277E-006
9.12870929175277E-006
9.12870929175277E-006
9.12870929175277E-006
9.12870929175277E-006
9.12870929175277E-006
9.12870929175277E-006
9.12870929175277E-006
9.12870929175277E-006
9.12870929175277E-006
9.12870929175277E-006
9.12870929175277E-006
9.12870929175277E-006
9.12870929175277E-006
9.12870929175277E-006
9.12870929175277E-006
9.12870929175277E-006
9.12870929175277E-006
9.12870929175277E-006
9.12870929175277E-006
9.12870929175277E-006
9.12870929175277E-006
9.12870929175277E-006
9.12870929175277E-006
9.12870929175277E-006
9.12870929175277E-006
9.12870929175277E-006
9.12870929175277E-006
9.12870929175277E-006
9.12870929175277E-006
9.12870929175277E-006
9.12870929175277E-006
9.12870929175277E-006
9.12870929175277E-006
9.12870929175277E-006
9.12870929175277E-006
9.12870929175277E-006
9.12870929175277E-006
9.12870929175277E-006
9.12870929175277E-006
9.12870929175277E-006
9.12870929175277E-006
9.12870929175277E-006
9.12870929175277E-006
9.12870929175277E-006
9.12870929175277E-006
9.12870929175277E-006
9.12870929175277E-006
9.12870929175277E-006
9.12870929175277E-006
9.12870929175277E-006
9.12870929175277E-006
9.12870929175277E-006
9.12870929175277E-006
9.12870929175277E-006
9.12870929175277E-006
9.12870929175277E-006
9.12870929175277E-006
9.12870929175277E-006
9.12870929175277E-006
9.12870929175277E-006
9.12870929175277E-006

)
;
    }
   outlet
   {
        type            zeroGradient;
    }
    top
    {
        type            zeroGradient;
    }
    fixedWalls
    {
        type            epsilonOngWallFunction;
        value           uniform 0.12;
    }
    frontAndBack
    {
        type            empty;
    }
}


// ************************************************************************* //
