/*--------------------------------*- C++ -*----------------------------------*\
| =========                 |                                                 |
| \\      /  F ield         | OpenFOAM: The Open Source CFD Toolbox           |
|  \\    /   O peration     | Version:  4.x                                   |
|   \\  /    A nd           | Web:      www.OpenFOAM.org                      |
|    \\/     M anipulation  |                                                 |
\*---------------------------------------------------------------------------*/
FoamFile
{
    version     2.0;
    format      ascii;
    class       volScalarField;
    location    "0";
    object      k;
}
// * * * * * * * * * * * * * * * * * * * * * * * * * * * * * * * * * * * * * //

dimensions      [0 2 -2 0 0 0 0];

internalField   uniform 0.0001;

boundaryField
{
     inlet
   {
        
        type            timeVaryingMappedFixedValue;
        setAverage      0;
        offset          0;
        value           nonuniform List<scalar> 
479
(
0.0044363754
0.0043919007
0.0043476501
0.0043036235
0.0042598211
0.0042162426
0.0041728882
0.0041297579
0.0040868516
0.0040441694
0.0040017112
0.0039594771
0.003917467
0.003875681
0.003834119
0.0037927811
0.0037516672
0.0037107774
0.0036701117
0.00362967
0.0035894524
0.0035494588
0.0035096892
0.0034701438
0.0034308223
0.003391725
0.0033528517
0.0033142024
0.0032757772
0.003237576
0.0031995989
0.0031618459
0.0031243169
0.0030870119
0.003049931
0.0030130742
0.0029764414
0.0029400327
0.002903848
0.0028678874
0.0028321508
0.0027966383
0.0027613499
0.0027262855
0.0026914451
0.0026568288
0.0026224366
0.0025882684
0.0025543243
0.0025206042
0.0024871081
0.0024538362
0.0024207882
0.0023879644
0.0023553646
0.0023229888
0.0022908371
0.0022589094
0.0022272058
0.0021957263
0.0021644708
0.0021334394
0.002102632
0.0020720487
0.0020416894
0.0020115542
0.001981643
0.0019519559
0.0019224928
0.0018932538
0.0018642388
0.0018354479
0.0018068811
0.0017785383
0.0017504196
0.0017225249
0.0016948542
0.0016674077
0.0016401851
0.0016131867
0.0015864123
0.0015598619
0.0015335356
0.0015074333
0.0014815551
0.001455901
0.0014304709
0.0014052648
0.0013802828
0.0013555249
0.001330991
0.0013066812
0.0012825954
0.0012587337
0.001235096
0.0012116824
0.0011884929
0.0011655274
0.0011427859
0.0011202685
0.0010979752
0.0010759059
0.0010540607
0.0010324395
0.0010110423
0.0009898693
0.0009689202
0.0009481953
0.0009276944
0.0009074175
0.0008873647
0.0008675359
0.0008479312
0.0008285506
0.000809394
0.0007904615
0.000771753
0.0007532686
0.0007350082
0.0007169719
0.0006991596
0.0006815714
0.0006642072
0.0006470671
0.000630151
0.000613459
0.0005969911
0.0005807472
0.0005647274
0.0005489316
0.0005333598
0.0005180122
0.0005028885
0.000487989
0.0004733135
0.000458862
0.0004446346
0.0004306312
0.0004168519
0.0004032967
0.0003899655
0.0003768583
0.0003639752
0.0003513162
0.0003388812
0.0003266703
0.0003146834
0.0003029206
0.0002913818
0.0002800671
0.0002689765
0.0002581099
0.0002474673
0.0002370488
0.0002268544
0.000216884
0.0002071376
0.0001976154
0.0001883171
0.000179243
0.0001703928
0.0001617668
0.0001533648
0.0001451868
0.0001372329
0.000129503
0.0001219972
0.0001147155
0.0001076578
0.0001008242
0.0001
0.0001
0.0001
0.0001
0.0001
0.0001
0.0001
0.0001
0.0001
0.0001
0.0001
0.0001
0.0001
0.0001
0.0001
0.0001
0.0001
0.0001
0.0001
0.0001
0.0001
0.0001
0.0001
0.0001
0.0001
0.0001
0.0001
0.0001
0.0001
0.0001
0.0001
0.0001
0.0001
0.0001
0.0001
0.0001
0.0001
0.0001
0.0001
0.0001
0.0001
0.0001
0.0001
0.0001
0.0001
0.0001
0.0001
0.0001
0.0001
0.0001
0.0001
0.0001
0.0001
0.0001
0.0001
0.0001
0.0001
0.0001
0.0001
0.0001
0.0001
0.0001
0.0001
0.0001
0.0001
0.0001
0.0001
0.0001
0.0001
0.0001
0.0001
0.0001
0.0001
0.0001
0.0001
0.0001
0.0001
0.0001
0.0001
0.0001
0.0001
0.0001
0.0001
0.0001
0.0001
0.0001
0.0001
0.0001
0.0001
0.0001
0.0001
0.0001
0.0001
0.0001
0.0001
0.0001
0.0001
0.0001
0.0001
0.0001
0.0001
0.0001
0.0001
0.0001
0.0001
0.0001
0.0001
0.0001
0.0001
0.0001
0.0001
0.0001
0.0001
0.0001
0.0001
0.0001
0.0001
0.0001
0.0001
0.0001
0.0001
0.0001
0.0001
0.0001
0.0001
0.0001
0.0001
0.0001
0.0001
0.0001
0.0001
0.0001
0.0001
0.0001
0.0001
0.0001
0.0001
0.0001
0.0001
0.0001
0.0001
0.0001
0.0001
0.0001
0.0001
0.0001
0.0001
0.0001
0.0001
0.0001
0.0001
0.0001
0.0001
0.0001
0.0001
0.0001
0.0001
0.0001
0.0001
0.0001
0.0001
0.0001
0.0001
0.0001
0.0001
0.0001
0.0001
0.0001
0.0001
0.0001
0.0001
0.0001
0.0001
0.0001
0.0001
0.0001
0.0001
0.0001
0.0001
0.0001
0.0001
0.0001
0.0001
0.0001
0.0001
0.0001
0.0001
0.0001
0.0001
0.0001
0.0001
0.0001
0.0001
0.0001
0.0001
0.0001
0.0001
0.0001
0.0001
0.0001
0.0001
0.0001
0.0001
0.0001
0.0001
0.0001
0.0001
0.0001
0.0001
0.0001
0.0001
0.0001
0.0001
0.0001
0.0001
0.0001
0.0001
0.0001
0.0001
0.0001
0.0001
0.0001
0.0001
0.0001
0.0001
0.0001
0.0001
0.0001
0.0001
0.0001
0.0001
0.0001
0.0001
0.0001
0.0001
0.0001
0.0001
0.0001
0.0001
0.0001
0.0001
0.0001
0.0001
0.0001
0.0001
0.0001
0.0001
0.0001
0.0001
0.0001
0.0001
0.0001
0.0001
0.0001
0.0001
0.0001
0.0001
0.0001
0.0001
0.0001
0.0001
0.0001
0.0001
0.0001
0.0001
0.0001
0.0001
0.0001
0.0001
0.0001
0.0001
0.0001
0.0001
0.0001
0.0001
0.0001
0.0001
0.0001
0.0001
0.0001
0.0001
0.0001
0.0001
0.0001
0.0001
0.0001
0.0001
0.0001
0.0001
0.0001
0.0001
0.0001
0.0001
0.0001
0.0001
0.0001
0.0001
0.0001
0.0001
0.0001
0.0001
0.0001
0.0001
0.0001
0.0001
0.0001
0.0001
0.0001
0.0001
)
;
    }
   outlet
   {
        type            zeroGradient;
    }

    top
    {
        type           zeroGradient; 
    }
    fixedWalls
    {
        type            kOngWallFunction;
        value           uniform 0.004481;
    }
    frontAndBack
    {
        type            empty;
    }
}


// ************************************************************************* //
