/*--------------------------------*- C++ -*----------------------------------*\
| =========                 |                                                 |
| \\      /  F ield         | OpenFOAM: The Open Source CFD Toolbox           |
|  \\    /   O peration     | Version:  4.x                                   |
|   \\  /    A nd           | Web:      www.OpenFOAM.org                      |
|    \\/     M anipulation  |                                                 |
\*---------------------------------------------------------------------------*/
FoamFile
{
    version     2.0;
    format      ascii;
    class       volScalarField;
    location    "0";
    object      nut;
}
// * * * * * * * * * * * * * * * * * * * * * * * * * * * * * * * * * * * * * //

dimensions      [0 2 -1 0 0 0 0];

internalField   uniform 0;

boundaryField
{
    
    inlet
   {
      type            timeVaryingMappedFixedValue;
        setAverage      0;
        offset          0;
        value           nonuniform List<scalar> 
479
(
1.47002326781327E-005
2.87581130434783E-005
4.22056824228029E-005
5.50728859813084E-005
6.73877413793104E-005
7.91764914027149E-005
9.04637423162583E-005
0.0001012726
0.0001116247
0.0001215406
0.0001310393
0.0001401391
0.0001488569
0.0001572089
0.0001652103
0.0001728755
0.000180218
0.0001872508
0.0001939861
0.0002004353
0.0002066096
0.0002125193
0.0002181744
0.0002235842
0.0002287577
0.0002337035
0.0002384296
0.0002429438
0.0002472534
0.0002513656
0.000255287
0.0002590241
0.000262583
0.0002659695
0.0002691893
0.0002722477
0.00027515
0.0002779009
0.0002805052
0.0002829675
0.0002852921
0.0002874832
0.0002895447
0.0002914805
0.0002932944
0.0002949897
0.0002965701
0.0002980386
0.0002993986
0.000300653
0.0003018048
0.0003028567
0.0003038116
0.000304672
0.0003054405
0.0003061194
0.0003067112
0.0003072181
0.0003076424
0.000307986
0.0003082511
0.0003084397
0.0003085536
0.0003085948
0.0003085649
0.0003084658
0.0003082991
0.0003080664
0.0003077692
0.0003074092
0.0003069878
0.0003065064
0.0003059664
0.0003053691
0.0003047159
0.0003040079
0.0003032465
0.0003024328
0.0003015679
0.000300653
0.0002996892
0.0002986775
0.0002976189
0.0002965145
0.0002953651
0.0002941719
0.0002929355
0.0002916571
0.0002903373
0.0002889772
0.0002875773
0.0002861387
0.000284662
0.0002831481
0.0002815975
0.0002800112
0.0002783896
0.0002767336
0.0002750439
0.0002733209
0.0002715654
0.000269778
0.0002679593
0.0002661099
0.0002642303
0.0002623211
0.0002603828
0.0002584159
0.0002564211
0.0002543987
0.0002523493
0.0002502733
0.0002481713
0.0002460436
0.0002438907
0.0002417131
0.0002395112
0.0002372854
0.000235036
0.0002327636
0.0002304685
0.000228151
0.0002258116
0.0002234506
0.0002210684
0.0002186653
0.0002162416
0.0002137977
0.0002113339
0.0002088506
0.0002063479
0.0002038264
0.0002012862
0.0001987276
0.0001961509
0.0001935565
0.0001909445
0.0001883153
0.0001856691
0.0001830062
0.0001803268
0.0001776311
0.0001749195
0.0001721922
0.0001694493
0.0001666912
0.000163918
0.0001611299
0.0001583272
0.0001555102
0.0001526789
0.0001498336
0.0001469746
0.0001441019
0.0001412158
0.0001383165
0.0001354042
0.000132479
0.0001295411
0.0001265907
0.000123628
0.0001206532
0.0001176663
0.0001146677
0.0001116573
0.0001086354
0.0001056022
0.0001025578
9.95022783954517E-005
9.64358679245283E-005
9.61824132916398E-005
9.63226801876915E-005
9.64617281287186E-005
9.65995729355218E-005
9.6736230156297E-005
9.68717150724823E-005
0.000097006
9.71392278170766E-005
9.72712849251159E-005
9.7402228298509E-005
9.75320719675066E-005
9.76608297276834E-005
9.77885151448248E-005
9.79151415596913E-005
9.80407220926651E-005
9.81652696482819E-005
9.82887969196515E-005
9.84113163927697E-005
9.85328403507262E-005
9.85900603509299E-005
9.85900603509299E-005
9.85900603509299E-005
9.85900603509299E-005
9.85900603509299E-005
9.85900603509299E-005
9.85900603509299E-005
9.85900603509299E-005
9.85900603509299E-005
9.85900603509299E-005
9.85900603509299E-005
9.85900603509299E-005
9.85900603509299E-005
9.85900603509299E-005
9.85900603509299E-005
9.85900603509299E-005
9.85900603509299E-005
9.85900603509299E-005
9.85900603509299E-005
9.85900603509299E-005
9.85900603509299E-005
9.85900603509299E-005
9.85900603509299E-005
9.85900603509299E-005
9.85900603509299E-005
9.85900603509299E-005
9.85900603509299E-005
9.85900603509299E-005
9.85900603509299E-005
9.85900603509299E-005
9.85900603509299E-005
9.85900603509299E-005
9.85900603509299E-005
9.85900603509299E-005
9.85900603509299E-005
9.85900603509299E-005
9.85900603509299E-005
9.85900603509299E-005
9.85900603509299E-005
9.85900603509299E-005
9.85900603509299E-005
9.85900603509299E-005
9.85900603509299E-005
9.85900603509299E-005
9.85900603509299E-005
9.85900603509299E-005
9.85900603509299E-005
9.85900603509299E-005
9.85900603509299E-005
9.85900603509299E-005
9.85900603509299E-005
9.85900603509299E-005
9.85900603509299E-005
9.85900603509299E-005
9.85900603509299E-005
9.85900603509299E-005
9.85900603509299E-005
9.85900603509299E-005
9.85900603509299E-005
9.85900603509299E-005
9.85900603509299E-005
9.85900603509299E-005
9.85900603509299E-005
9.85900603509299E-005
9.85900603509299E-005
9.85900603509299E-005
9.85900603509299E-005
9.85900603509299E-005
9.85900603509299E-005
9.85900603509299E-005
9.85900603509299E-005
9.85900603509299E-005
9.85900603509299E-005
9.85900603509299E-005
9.85900603509299E-005
9.85900603509299E-005
9.85900603509299E-005
9.85900603509299E-005
9.85900603509299E-005
9.85900603509299E-005
9.85900603509299E-005
9.85900603509299E-005
9.85900603509299E-005
9.85900603509299E-005
9.85900603509299E-005
9.85900603509299E-005
9.85900603509299E-005
9.85900603509299E-005
9.85900603509299E-005
9.85900603509299E-005
9.85900603509299E-005
9.85900603509299E-005
9.85900603509299E-005
9.85900603509299E-005
9.85900603509299E-005
9.85900603509299E-005
9.85900603509299E-005
9.85900603509299E-005
9.85900603509299E-005
9.85900603509299E-005
9.85900603509299E-005
9.85900603509299E-005
9.85900603509299E-005
9.85900603509299E-005
9.85900603509299E-005
9.85900603509299E-005
9.85900603509299E-005
9.85900603509299E-005
9.85900603509299E-005
9.85900603509299E-005
9.85900603509299E-005
9.85900603509299E-005
9.85900603509299E-005
9.85900603509299E-005
9.85900603509299E-005
9.85900603509299E-005
9.85900603509299E-005
9.85900603509299E-005
9.85900603509299E-005
9.85900603509299E-005
9.85900603509299E-005
9.85900603509299E-005
9.85900603509299E-005
9.85900603509299E-005
9.85900603509299E-005
9.85900603509299E-005
9.85900603509299E-005
9.85900603509299E-005
9.85900603509299E-005
9.85900603509299E-005
9.85900603509299E-005
9.85900603509299E-005
9.85900603509299E-005
9.85900603509299E-005
9.85900603509299E-005
9.85900603509299E-005
9.85900603509299E-005
9.85900603509299E-005
9.85900603509299E-005
9.85900603509299E-005
9.85900603509299E-005
9.85900603509299E-005
9.85900603509299E-005
9.85900603509299E-005
9.85900603509299E-005
9.85900603509299E-005
9.85900603509299E-005
9.85900603509299E-005
9.85900603509299E-005
9.85900603509299E-005
9.85900603509299E-005
9.85900603509299E-005
9.85900603509299E-005
9.85900603509299E-005
9.85900603509299E-005
9.85900603509299E-005
9.85900603509299E-005
9.85900603509299E-005
9.85900603509299E-005
9.85900603509299E-005
9.85900603509299E-005
9.85900603509299E-005
9.85900603509299E-005
9.85900603509299E-005
9.85900603509299E-005
9.85900603509299E-005
9.85900603509299E-005
9.85900603509299E-005
9.85900603509299E-005
9.85900603509299E-005
9.85900603509299E-005
9.85900603509299E-005
9.85900603509299E-005
9.85900603509299E-005
9.85900603509299E-005
9.85900603509299E-005
9.85900603509299E-005
9.85900603509299E-005
9.85900603509299E-005
9.85900603509299E-005
9.85900603509299E-005
9.85900603509299E-005
9.85900603509299E-005
9.85900603509299E-005
9.85900603509299E-005
9.85900603509299E-005
9.85900603509299E-005
9.85900603509299E-005
9.85900603509299E-005
9.85900603509299E-005
9.85900603509299E-005
9.85900603509299E-005
9.85900603509299E-005
9.85900603509299E-005
9.85900603509299E-005
9.85900603509299E-005
9.85900603509299E-005
9.85900603509299E-005
9.85900603509299E-005
9.85900603509299E-005
9.85900603509299E-005
9.85900603509299E-005
9.85900603509299E-005
9.85900603509299E-005
9.85900603509299E-005
9.85900603509299E-005
9.85900603509299E-005
9.85900603509299E-005
9.85900603509299E-005
9.85900603509299E-005
9.85900603509299E-005
9.85900603509299E-005
9.85900603509299E-005
9.85900603509299E-005
9.85900603509299E-005
9.85900603509299E-005
9.85900603509299E-005
9.85900603509299E-005
9.85900603509299E-005
9.85900603509299E-005
9.85900603509299E-005
9.85900603509299E-005
9.85900603509299E-005
9.85900603509299E-005
9.85900603509299E-005
9.85900603509299E-005
9.85900603509299E-005
9.85900603509299E-005
9.85900603509299E-005
9.85900603509299E-005
9.85900603509299E-005
9.85900603509299E-005
9.85900603509299E-005
9.85900603509299E-005
9.85900603509299E-005
9.85900603509299E-005
9.85900603509299E-005
9.85900603509299E-005
9.85900603509299E-005
9.85900603509299E-005
9.85900603509299E-005
9.85900603509299E-005
9.85900603509299E-005
9.85900603509299E-005
9.85900603509299E-005
9.85900603509299E-005
9.85900603509299E-005
9.85900603509299E-005
9.85900603509299E-005
9.85900603509299E-005
9.85900603509299E-005
9.85900603509299E-005
9.85900603509299E-005
9.85900603509299E-005
9.85900603509299E-005
9.85900603509299E-005
9.85900603509299E-005
9.85900603509299E-005
9.85900603509299E-005
9.85900603509299E-005
9.85900603509299E-005
9.85900603509299E-005
9.85900603509299E-005
9.85900603509299E-005
9.85900603509299E-005
9.85900603509299E-005
9.85900603509299E-005
9.85900603509299E-005
9.85900603509299E-005
9.85900603509299E-005
9.85900603509299E-005
9.85900603509299E-005
9.85900603509299E-005
9.85900603509299E-005
9.85900603509299E-005
9.85900603509299E-005
9.85900603509299E-005
9.85900603509299E-005
9.85900603509299E-005
9.85900603509299E-005
9.85900603509299E-005
9.85900603509299E-005
9.85900603509299E-005
9.85900603509299E-005
9.85900603509299E-005
9.85900603509299E-005
9.85900603509299E-005
9.85900603509299E-005
9.85900603509299E-005
9.85900603509299E-005

)
;
    }
   outlet
   {
         type             zeroGradient;
    }
    top
    {
        type            zeroGradient;
    }
    fixedWalls
    {
        type            nutOngWallFunction;
        value           uniform 0;
    }
    frontAndBack
    {
        type            empty;
    }
}


// ************************************************************************* //
