0 	2.65993 	-0.474938 	-0.323234
0.0505051 	2.65993 	-0.474938 	-0.323234
0.10101 	3.95558 	-0.616456 	-0.653337
0.151515 	3.95558 	-0.616456 	-0.653337
0.20202 	5.25122 	-0.757974 	-0.983441
0.252525 	5.25122 	-0.757974 	-0.983441
0.30303 	6.4295 	-0.531604 	-0.984586
0.353535 	6.4295 	-0.531604 	-0.984586
0.40404 	7.5016 	0.027617 	-0.688102
0.454545 	7.5016 	0.027617 	-0.688102
0.505051 	8.55223 	0.592905 	-0.389238
0.555556 	8.55223 	0.592905 	-0.389238
0.606061 	9.19509 	1.27346 	-0.0451534
0.656566 	9.19509 	1.27346 	-0.0451534
0.707071 	9.83794 	1.95402 	0.298931
0.757576 	9.83794 	1.95402 	0.298931
0.808081 	10.1047 	1.94127 	0.391516
0.858586 	10.1047 	1.94127 	0.391516
0.909091 	10.0934 	1.41607 	0.29821
0.959596 	10.0934 	1.41607 	0.29821
1.0101 	10.0957 	0.942689 	0.208891
1.06061 	10.0957 	0.942689 	0.208891
1.11111 	10.2204 	0.935661 	0.155456
1.16162 	10.2204 	0.935661 	0.155456
1.21212 	10.3451 	0.928632 	0.102021
1.26263 	10.3451 	0.928632 	0.102021
1.31313 	10.7034 	0.86447 	-0.15192
1.36364 	10.7034 	0.86447 	-0.15192
1.41414 	11.2019 	0.766027 	-0.526165
1.46465 	11.2019 	0.766027 	-0.526165
1.51515 	11.6706 	0.584068 	-0.852943
1.56566 	11.6706 	0.584068 	-0.852943
1.61616 	11.9708 	-0.0711544 	-0.910744
1.66667 	11.9708 	-0.0711544 	-0.910744
1.71717 	12.271 	-0.726376 	-0.968545
0 	12.271 	-0.726376 	-0.968545
0.0505051 	12.2063 	-0.98617 	-0.880634
0.10101 	12.2063 	-0.98617 	-0.880634
0.151515 	11.9659 	-1.05557 	-0.722566
0.20202 	11.9659 	-1.05557 	-0.722566
0.252525 	11.7432 	-1.11323 	-0.628811
0.30303 	11.7432 	-1.11323 	-0.628811
0.353535 	11.5913 	-1.12389 	-0.792314
0.40404 	11.5913 	-1.12389 	-0.792314
0.454545 	11.4394 	-1.13456 	-0.955817
0.505051 	11.4394 	-1.13456 	-0.955817
0.555556 	11.8171 	-1.17232 	-1.00059
0.606061 	11.8171 	-1.17232 	-1.00059
0.656566 	12.3956 	-1.22036 	-1.00033
0.707071 	12.3956 	-1.22036 	-1.00033
0.757576 	12.9197 	-1.2335 	-1.01679
0.808081 	12.9197 	-1.2335 	-1.01679
0.858586 	13.28 	-1.14194 	-1.08339
0.909091 	13.28 	-1.14194 	-1.08339
0.959596 	13.6404 	-1.05039 	-1.15
1.0101 	13.6404 	-1.05039 	-1.15
1.06061 	13.5646 	-0.975074 	-1.47606
1.11111 	13.5646 	-0.975074 	-1.47606
1.16162 	13.3621 	-0.904474 	-1.87745
1.21212 	13.3621 	-0.904474 	-1.87745
1.26263 	13.2626 	-0.8856 	-2.15723
1.31313 	13.2626 	-0.8856 	-2.15723
1.36364 	13.4032 	-0.987422 	-2.15328
1.41414 	13.4032 	-0.987422 	-2.15328
1.46465 	13.5438 	-1.08924 	-2.14932
1.51515 	13.5438 	-1.08924 	-2.14932
1.56566 	12.1701 	-1.01527 	-1.80697
1.61616 	12.1701 	-1.01527 	-1.80697
1.66667 	10.4751 	-0.904013 	-1.39284
1.71717 	10.4751 	-0.904013 	-1.39284
1.76768 	8.87747 	-0.830775 	-1.12601
1.81818 	8.87747 	-0.830775 	-1.12601
1.86869 	7.46062 	-0.828149 	-1.1327
1.91919 	7.46062 	-0.828149 	-1.1327
1.9697 	6.04376 	-0.825523 	-1.1394
2.0202 	6.04376 	-0.825523 	-1.1394
2.07071 	6.80474 	-0.335877 	-0.880817
2.12121 	6.80474 	-0.335877 	-0.880817
2.17172 	7.87683 	0.223344 	-0.584333
2.22222 	7.87683 	0.223344 	-0.584333
2.27273 	8.77723 	0.831101 	-0.268809
2.32323 	8.77723 	0.831101 	-0.268809
2.37374 	9.42008 	1.51166 	0.0752763
2.42424 	9.42008 	1.51166 	0.0752763
2.47475 	10.0629 	2.19222 	0.419361
2.52525 	10.0629 	2.19222 	0.419361
2.57576 	10.1007 	1.75745 	0.358859
2.62626 	10.1007 	1.75745 	0.358859
2.67677 	10.0894 	1.23225 	0.265553
2.72727 	10.0894 	1.23225 	0.265553
2.77778 	10.1393 	0.940229 	0.190189
2.82828 	10.1393 	0.940229 	0.190189
2.87879 	10.264 	0.933201 	0.136754
2.92929 	10.264 	0.933201 	0.136754
2.9798 	10.3887 	0.926172 	0.083319
3.0303 	10.3887 	0.926172 	0.083319
3.08081 	10.8778 	0.830015 	-0.282906
3.13131 	10.8778 	0.830015 	-0.282906
3.18182 	11.3764 	0.731572 	-0.657151
3.23232 	11.3764 	0.731572 	-0.657151
3.28283 	11.7757 	0.35474 	-0.873174
3.33333 	11.7757 	0.35474 	-0.873174
1.76768 	12.0759 	-0.300482 	-0.930975
1.81818 	12.0759 	-0.300482 	-0.930975
1.86869 	12.3626 	-0.941059 	-0.983379
1.91919 	12.3626 	-0.941059 	-0.983379
1.9697 	12.1222 	-1.01046 	-0.82531
2.0202 	12.1222 	-1.01046 	-0.82531
2.07071 	11.8817 	-1.07986 	-0.667242
2.12121 	11.8817 	-1.07986 	-0.667242
2.17172 	11.69 	-1.11696 	-0.686037
2.22222 	11.69 	-1.11696 	-0.686037
2.27273 	11.5381 	-1.12763 	-0.84954
2.32323 	11.5381 	-1.12763 	-0.84954
2.37374 	11.441 	-1.1411 	-1.00076
2.42424 	11.441 	-1.1411 	-1.00076
2.47475 	12.0196 	-1.18913 	-1.0005
2.52525 	12.0196 	-1.18913 	-1.0005
2.57576 	12.5981 	-1.23717 	-1.00024
2.62626 	12.5981 	-1.23717 	-1.00024
2.67677 	13.0458 	-1.20145 	-1.0401
2.72727 	13.0458 	-1.20145 	-1.0401
2.77778 	13.4061 	-1.1099 	-1.10671
2.82828 	13.4061 	-1.1099 	-1.10671
2.87879 	13.6962 	-1.02096 	-1.21516
2.92929 	13.6962 	-1.02096 	-1.21516
2.9798 	13.4937 	-0.950364 	-1.61655
3.0303 	13.4937 	-0.950364 	-1.61655
3.08081 	13.2912 	-0.879764 	-2.01793
3.13131 	13.2912 	-0.879764 	-2.01793
3.18182 	12.2472 	-0.952276 	-2.03052
3.23232 	12.2472 	-0.952276 	-2.03052
3.28283 	10.7501 	-1.10185 	-1.83376
3.33333 	10.7501 	-1.10185 	-1.83376
3.38384 	9.25699 	-1.19696 	-1.63387
3.43434 	9.25699 	-1.19696 	-1.63387
3.48485 	7.78293 	-1.03532 	-1.41925
3.53535 	7.78293 	-1.03532 	-1.41925
3.58586 	6.30887 	-0.873686 	-1.20463
3.63636 	6.30887 	-0.873686 	-1.20463
3.68687 	6.61712 	-0.43374 	-0.932701
3.73737 	6.61712 	-0.43374 	-0.932701
3.78788 	7.68922 	0.125481 	-0.636217
3.83838 	7.68922 	0.125481 	-0.636217
3.88889 	8.66473 	0.712003 	-0.329023
3.93939 	8.66473 	0.712003 	-0.329023
3.9899 	9.30758 	1.39256 	0.0150614
4.0404 	9.30758 	1.39256 	0.0150614
4.09091 	9.95044 	2.07312 	0.359146
4.14141 	9.95044 	2.07312 	0.359146
4.19192 	10.1027 	1.84936 	0.375188
4.24242 	10.1027 	1.84936 	0.375188
4.29293 	10.0914 	1.32416 	0.281882
4.34343 	10.0914 	1.32416 	0.281882
4.39394 	10.1175 	0.941459 	0.19954
4.44444 	10.1175 	0.941459 	0.19954
4.49495 	10.2422 	0.934431 	0.146105
4.54545 	10.2422 	0.934431 	0.146105
4.59596 	10.3669 	0.927402 	0.0926702
4.64646 	10.3669 	0.927402 	0.0926702
4.69697 	10.7906 	0.847242 	-0.217413
4.74747 	10.7906 	0.847242 	-0.217413
4.79798 	11.2891 	0.7488 	-0.591658
4.84848 	11.2891 	0.7488 	-0.591658
4.89899 	11.7232 	0.469404 	-0.863059
4.94949 	11.7232 	0.469404 	-0.863059
5 	12.0234 	-0.185818 	-0.92086
3.38384 	12.0234 	-0.185818 	-0.92086
3.43434 	12.3236 	-0.84104 	-0.97866
3.48485 	12.3236 	-0.84104 	-0.97866
3.53535 	12.1642 	-0.998315 	-0.852972
3.58586 	12.1642 	-0.998315 	-0.852972
3.63636 	11.9238 	-1.06772 	-0.694904
3.68687 	11.9238 	-1.06772 	-0.694904
3.73737 	11.7166 	-1.11509 	-0.657424
3.78788 	11.7166 	-1.11509 	-0.657424
3.83838 	11.5647 	-1.12576 	-0.820927
3.88889 	11.5647 	-1.12576 	-0.820927
3.93939 	11.4128 	-1.13643 	-0.98443
3.9899 	11.4128 	-1.13643 	-0.98443
4.0404 	11.9183 	-1.18073 	-1.00055
4.09091 	11.9183 	-1.18073 	-1.00055
4.14141 	12.4969 	-1.22876 	-1.00029
4.19192 	12.4969 	-1.22876 	-1.00029
4.24242 	12.9827 	-1.21747 	-1.02844
4.29293 	12.9827 	-1.21747 	-1.02844
4.34343 	13.3431 	-1.12592 	-1.09505
4.39394 	13.3431 	-1.12592 	-1.09505
4.44444 	13.7035 	-1.03437 	-1.16166
4.49495 	13.7035 	-1.03437 	-1.16166
4.54545 	13.5291 	-0.962719 	-1.5463
4.59596 	13.5291 	-0.962719 	-1.5463
4.64646 	13.3267 	-0.892119 	-1.94769
4.69697 	13.3267 	-0.892119 	-1.94769
4.74747 	13.3168 	-0.942927 	-1.74418
4.79798 	13.3168 	-0.942927 	-1.74418
4.84848 	13.5197 	-1.12792 	-0.872089
4.89899 	13.5197 	-1.12792 	-0.872089
4.94949 	13.7226 	-1.31292 	-1.53365e-14
5 	13.7226 	-1.31292 	-1.53365e-14
