# Probe 0 (0 1 0.5)
# Probe 1 (2.5 1 0.5)
# Probe 2 (0 1 0.375)
# Probe 3 (2.5 1 0.375)
#       Probe             0             1             2             3
#        Time
        0.002             (4.49733 0.0977724 -2.60769)             (9.61215 0.000885334 -0.0686071)             (3.98343 -0.234105 -2.2274)             (9.60548 0.000855279 -0.049913)
        0.004             (5.04918 0.166058 -2.56701)             (9.62716 0.00109358 -0.0686529)             (4.32303 -0.280742 -2.10299)             (9.62043 0.00106527 -0.0499637)
        0.006             (5.63325 0.225478 -2.61634)             (9.73476 0.00140296 -0.0693905)             (4.72409 -0.0914373 -2.01724)             (9.72791 0.00137788 -0.0505184)
        0.008             (6.09535 0.286318 -2.66093)             (9.83218 0.0019901 -0.0704715)             (5.03582 0.260324 -1.9043)             (9.82517 0.00197086 -0.0513214)
         0.01             (6.3128 0.413648 -2.54655)             (9.83744 0.00268208 -0.0711428)             (5.17879 0.672796 -1.60831)             (9.8303 0.00266385 -0.0518253)
        0.012             (6.32756 0.659625 -2.25364)             (9.77309 0.0030615 -0.0710519)             (5.20777 1.06195 -1.0996)             (9.76589 0.00303246 -0.0517721)
        0.014             (6.32567 0.989149 -1.94158)             (9.73354 0.00288112 -0.0705421)             (5.24823 1.40728 -0.558586)             (9.72632 0.00283047 -0.0514106)
        0.016             (6.48118 1.35505 -1.74098)             (9.77183 0.00241736 -0.0700289)             (5.38354 1.73103 -0.235582)             (9.76459 0.00234161 -0.0510464)
        0.018             (6.79389 1.57554 -1.68604)             (9.83544 0.00236644 -0.069662)             (5.57677 1.94775 -0.146721)             (9.82816 0.00227293 -0.0507905)
         0.02             (7.11071 1.59663 -1.65942)             (9.82804 0.00315175 -0.0692028)             (5.73634 2.04038 -0.123257)             (9.82068 0.00305297 -0.0504707)
        0.022             (7.29523 1.4741 -1.57356)             (9.7218 0.00450454 -0.068624)             (5.83054 2.01729 -0.0172931)             (9.71436 0.0044089 -0.0500633)
        0.024             (7.39227 1.34949 -1.44933)             (9.58997 0.00558696 -0.0680743)             (5.9089 1.9401 0.146973)             (9.58247 0.00549563 -0.0496706)
        0.026             (7.57046 1.31469 -1.35428)             (9.52162 0.00575832 -0.0679121)             (6.02141 1.88038 0.243103)             (9.51405 0.005666 -0.0495503)
        0.028             (7.95147 1.41368 -1.29175)             (9.52435 0.0052153 -0.0682022)             (6.15689 1.85568 0.215821)             (9.51667 0.00511684 -0.0497522)
         0.03             (8.4231 1.55556 -1.17138)             (9.5276 0.00468341 -0.0688591)             (6.27086 1.83856 0.197397)             (9.51976 0.00457944 -0.0502202)
        0.032             (8.75321 1.63821 -0.960525)             (9.4762 0.00473108 -0.0698783)             (6.35699 1.81465 0.348777)             (9.46816 0.00462569 -0.0509541)
        0.034             (8.82318 1.62102 -0.692841)             (9.3958 0.00539155 -0.0714859)             (6.45799 1.79169 0.632878)             (9.38746 0.00529021 -0.0521163)
        0.036             (8.7392 1.54554 -0.4291)             (9.35421 0.00609791 -0.0737287)             (6.60444 1.76359 0.855907)             (9.34553 0.0059994 -0.0537355)
        0.038             (8.67532 1.50641 -0.216264)             (9.3732 0.00626118 -0.0762756)             (6.74612 1.70569 0.902887)             (9.36416 0.00615857 -0.0555674)
         0.04             (8.72898 1.52675 0.010324)             (9.40256 0.0059232 -0.0786752)             (6.82892 1.59973 0.831881)             (9.39318 0.00580796 -0.0572832)
        0.042             (8.89123 1.57098 0.200462)             (9.38564 0.00556483 -0.0806124)             (6.8331 1.42144 0.721462)             (9.37597 0.00543407 -0.0586564)
        0.044             (9.09823 1.63787 0.281854)             (9.33013 0.00559694 -0.0819422)             (6.78303 1.18771 0.615861)             (9.32022 0.00545433 -0.0595841)
        0.046             (9.30589 1.71523 0.317736)             (9.29663 0.00598339 -0.0826914)             (6.79831 0.917308 0.533728)             (9.28653 0.00583473 -0.0600878)
        0.048             (9.5999 1.82011 0.477386)             (9.32302 0.00614155 -0.082962)             (6.98967 0.66973 0.425188)             (9.31276 0.00598917 -0.0602423)
         0.05             (9.98476 1.92525 0.835271)             (9.37715 0.00559395 -0.0831354)             (7.30195 0.590856 0.377702)             (9.36673 0.00543606 -0.060323)
        0.052             (10.3822 1.85713 1.28883)             (9.39197 0.00444304 -0.0836279)             (7.63784 0.676112 0.447127)             (9.38135 0.00427789 -0.0606296)
        0.054             (10.6892 1.53134 1.60221)             (9.33499 0.00339804 -0.0845032)             (7.88186 0.849038 0.574282)             (9.32413 0.00322692 -0.0612071)
        0.056             (10.858 1.0575 1.63849)             (9.23354 0.00303375 -0.0852983)             (7.99883 0.981967 0.657286)             (9.22246 0.00285835 -0.0617191)
        0.058             (10.9442 0.616217 1.50295)             (9.13974 0.00320645 -0.0853888)             (8.05271 0.978876 0.677009)             (9.12851 0.00302426 -0.0617163)
         0.06             (11.0132 0.303826 1.44872)             (9.08553 0.00329095 -0.0849897)             (8.15022 0.823725 0.715012)             (9.07416 0.00309535 -0.0613575)
        0.062             (11.0251 0.128588 1.58407)             (9.07563 0.00282168 -0.0851717)             (8.35142 0.605253 0.87615)             (9.06406 0.00260856 -0.0614177)
        0.064             (10.9134 0.0179064 1.75736)             (9.10534 0.00192989 -0.0869755)             (8.62429 0.473228 1.14)             (9.09343 0.00170041 -0.0626474)
        0.066             (10.6628 -0.11983 1.79819)             (9.16623 0.00120137 -0.0901235)             (8.90326 0.475349 1.44058)             (9.15386 0.000962141 -0.0648424)
        0.068             (10.3393 -0.281484 1.68803)             (9.23377 0.000767621 -0.0930803)             (9.13266 0.543221 1.75235)             (9.22097 0.000522237 -0.0668908)
         0.07             (10.0169 -0.417383 1.59478)             (9.26721 0.000203777 -0.094738)             (9.31863 0.586593 2.11239)             (9.25405 -5.02838e-05 -0.0679936)
        0.072             (9.74378 -0.499491 1.60577)             (9.23863 -0.000980954 -0.0954155)             (9.48381 0.581824 2.50008)             (9.22517 -0.00124873 -0.0683835)
        0.074             (9.52296 -0.55107 1.58696)             (9.16011 -0.0024743 -0.0966374)             (9.62827 0.544694 2.76591)             (9.14629 -0.00276038 -0.0691641)
        0.076             (9.36662 -0.62416 1.39759)             (9.07552 -0.00347735 -0.0991769)             (9.74679 0.474663 2.75813)             (9.06123 -0.00378214 -0.0708919)
        0.078             (9.27983 -0.743765 1.06622)             (9.02106 -0.00366643 -0.102031)             (9.83823 0.364311 2.55286)             (9.00627 -0.00398505 -0.0728368)
         0.08             (9.2471 -0.849362 0.805588)             (8.99919 -0.00363449 -0.103391)             (9.90968 0.234806 2.37673)             (8.98404 -0.00396487 -0.0736889)
        0.082             (9.26531 -0.796117 0.733906)             (8.99118 -0.00424197 -0.102904)             (9.92144 0.226106 2.34152)             (8.97583 -0.00458736 -0.0731943)
        0.084             (9.34294 -0.500316 0.80256)             (8.98805 -0.0055895 -0.10224)             (9.83754 0.402071 2.36011)             (8.9725 -0.00595625 -0.0725655)
        0.086             (9.51668 -0.0298271 0.845408)             (8.99823 -0.00699391 -0.103557)             (9.65769 0.670959 2.22921)             (8.98229 -0.00738773 -0.0733675)
        0.088             (9.79153 0.475979 0.737476)             (9.02613 -0.00779547 -0.107522)             (9.40797 0.879499 1.883)             (9.00955 -0.00821808 -0.0760826)
         0.09             (10.0971 0.890499 0.497062)             (9.05603 -0.00809733 -0.112695)             (9.13417 0.930096 1.47174)             (9.03867 -0.00854488 -0.0796689)
        0.092             (10.2908 1.22128 0.256805)             (9.06584 -0.00855097 -0.117068)             (8.86843 0.850283 1.23076)             (9.04773 -0.0090163 -0.0826698)
        0.094             (10.2713 1.51149 0.101033)             (9.05382 -0.00941293 -0.119972)             (8.61318 0.751411 1.21182)             (9.03508 -0.00989094 -0.0845953)
        0.096             (10.1067 1.78953 0.0467761)             (9.0413 -0.0102681 -0.122409)             (8.39127 0.649873 1.26743)             (9.02197 -0.0107618 -0.0861689)
        0.098             (9.93737 2.03381 0.0371668)             (9.04608 -0.0107022 -0.125437)             (8.24106 0.542017 1.24003)             (9.02611 -0.0112215 -0.088154)
          0.1             (9.8515 2.20476 -0.0357899)             (9.05851 -0.0108781 -0.12903)             (8.16795 0.452 1.08155)             (9.03785 -0.0114364 -0.0905342)
        0.102             (9.82744 2.32519 -0.259144)             (9.05308 -0.011258 -0.132307)             (8.11533 0.450341 0.857673)             (9.03173 -0.0118628 -0.0926765)
        0.104             (9.78779 2.44379 -0.679937)             (9.0223 -0.011851 -0.134696)             (7.98099 0.598609 0.606675)             (9.00032 -0.0125032 -0.0941668)
        0.106             (9.70678 2.59467 -1.20577)             (8.99058 -0.0123243 -0.136429)             (7.75538 0.810264 0.323418)             (8.96799 -0.0130226 -0.0951739)
        0.108             (9.65184 2.76829 -1.66854)             (8.98827 -0.0125771 -0.138124)             (7.53296 1.02439 0.0148245)             (8.96507 -0.0133229 -0.0961398)
         0.11             (9.70726 2.89383 -1.93436)             (9.01616 -0.0130415 -0.140192)             (7.43515 1.1691 -0.281206)             (8.99232 -0.0138392 -0.0973567)
        0.112             (9.83859 2.98728 -2.04801)             (9.0437 -0.0144152 -0.14271)             (7.47075 1.29781 -0.441843)             (9.01919 -0.0152681 -0.0988786)
        0.114             (9.94311 3.10161 -2.17778)             (9.04334 -0.0167408 -0.145802)             (7.54008 1.4813 -0.458588)             (9.0181 -0.0176484 -0.1008)
        0.116             (9.95342 3.24381 -2.41956)             (9.02018 -0.019147 -0.149828)             (7.55303 1.70119 -0.410275)             (8.99409 -0.0201077 -0.103387)
        0.118             (9.91435 3.33267 -2.68483)             (9.00326 -0.0208178 -0.154936)             (7.51076 1.81812 -0.407388)             (8.97618 -0.0218318 -0.106751)
         0.12             (9.92066 3.26791 -2.81218)             (9.01076 -0.0217365 -0.160624)             (7.47661 1.72435 -0.468524)             (8.98258 -0.0228103 -0.110523)
        0.122             (10.0146 3.06897 -2.76619)             (9.03072 -0.0226118 -0.166007)             (7.47698 1.47414 -0.597306)             (9.00146 -0.023755 -0.114051)
        0.124             (10.153 2.75718 -2.64942)             (9.03748 -0.0238972 -0.170605)             (7.4822 1.22876 -0.789935)             (9.00723 -0.0251193 -0.116978)
        0.126             (10.2774 2.42219 -2.60371)             (9.02203 -0.0252834 -0.174723)             (7.43817 1.15386 -1.05813)             (8.99086 -0.026593 -0.119527)
        0.128             (10.3676 2.16654 -2.59711)             (9.00139 -0.026242 -0.17917)             (7.3231 1.26556 -1.32044)             (8.96925 -0.0276473 -0.122293)
         0.13             (10.4499 1.95241 -2.48755)             (9.00206 -0.0266573 -0.18419)             (7.16635 1.41898 -1.45862)             (8.96885 -0.0281646 -0.12546)
        0.132             (10.5125 1.74989 -2.24091)             (9.03585 -0.0270216 -0.189238)             (6.99855 1.46763 -1.37361)             (9.0015 -0.0286342 -0.128631)
        0.134             (10.483 1.50704 -1.95129)             (9.09007 -0.0276415 -0.193596)             (6.83865 1.35742 -1.10391)             (9.05461 -0.0293618 -0.131274)
        0.136             (10.3354 1.25347 -1.72021)             (9.13586 -0.0282853 -0.197143)             (6.73053 1.16261 -0.818152)             (9.09937 -0.0301171 -0.133291)
        0.138             (10.1111 1.00453 -1.48284)             (9.14702 -0.0285319 -0.200508)             (6.77182 1.04063 -0.631248)             (9.10955 -0.030487 -0.135134)
         0.14             (9.86976 0.774425 -1.20838)             (9.12086 -0.0282871 -0.204736)             (6.98827 1.0355 -0.530169)             (9.08232 -0.0303844 -0.137569)
        0.142             (9.62723 0.550214 -0.937828)             (9.08961 -0.0279233 -0.210457)             (7.27142 1.04783 -0.417754)             (9.04983 -0.0301811 -0.141059)
        0.144             (9.38733 0.434457 -0.771795)             (9.10455 -0.0279179 -0.217404)             (7.42828 0.9851 -0.285845)             (9.06339 -0.0303506 -0.145407)
        0.146             (9.15243 0.462519 -0.723706)             (9.19161 -0.0284376 -0.224891)             (7.38357 0.840296 -0.17085)             (9.149 -0.0310601 -0.150103)
        0.148             (8.98408 0.560014 -0.65543)             (9.3162 -0.0293687 -0.231969)             (7.24875 0.688651 -0.162927)             (9.27216 -0.0322038 -0.15445)
         0.15             (8.92955 0.652789 -0.383044)             (9.39849 -0.0305972 -0.238021)             (7.1491 0.636679 -0.242555)             (9.35311 -0.0336735 -0.158)
        0.152             (8.98231 0.673138 0.0960527)             (9.38036 -0.0320547 -0.243291)             (7.11456 0.701386 -0.328287)             (9.33368 -0.0354022 -0.160935)
        0.154             (9.11963 0.643909 0.539756)             (9.28318 -0.0334851 -0.248897)             (7.05278 0.812001 -0.395568)             (9.23515 -0.0371297 -0.16407)
        0.156             (9.35456 0.585221 0.703515)             (9.1934 -0.034486 -0.256182)             (6.88206 0.900025 -0.537017)             (9.14385 -0.03845 -0.168378)
        0.158             (9.67844 0.536058 0.484888)             (9.18348 -0.0348607 -0.265693)             (6.62865 0.943512 -0.830344)             (9.13222 -0.039171 -0.174244)
         0.16             (10.095 0.38985 0.00989727)             (9.24881 -0.0348169 -0.276322)             (6.4065 0.994719 -1.25499)             (9.19574 -0.03951 -0.180858)
        0.162             (10.5272 0.115593 -0.400049)             (9.3223 -0.0348355 -0.286204)             (6.31234 1.15892 -1.61205)             (9.26746 -0.0399547 -0.18686)
        0.164             (10.8221 -0.192541 -0.607588)             (9.34715 -0.0352665 -0.294456)             (6.33685 1.43301 -1.70722)             (9.29068 -0.0408568 -0.191609)
        0.166             (10.8845 -0.388336 -0.646246)             (9.32677 -0.0359504 -0.301996)             (6.41975 1.71228 -1.50562)             (9.26872 -0.0420517 -0.195767)
        0.168             (10.7475 -0.4323 -0.634812)             (9.30358 -0.0366562 -0.310669)             (6.51053 1.87685 -1.15286)             (9.24387 -0.0433064 -0.200669)
         0.17             (10.5506 -0.329911 -0.706311)             (9.30273 -0.0372218 -0.321389)             (6.56021 1.87686 -0.893114)             (9.24117 -0.0444657 -0.206978)
        0.172             (10.3574 -0.186983 -0.847118)             (9.30931 -0.0378606 -0.333114)             (6.57003 1.76769 -0.790838)             (9.24581 -0.0457551 -0.213934)
        0.174             (10.1565 -0.129983 -0.953942)             (9.29782 -0.0387328 -0.344125)             (6.59039 1.67359 -0.77835)             (9.23242 -0.0473464 -0.22029)
        0.176             (9.92541 -0.155667 -0.964621)             (9.2708 -0.0397308 -0.353586)             (6.6616 1.64325 -0.789209)             (9.20363 -0.0491364 -0.225433)
        0.178             (9.67721 -0.171811 -0.913586)             (9.2557 -0.0404293 -0.362552)             (6.79895 1.67816 -0.851474)             (9.18683 -0.0507017 -0.230117)
         0.18             (9.45488 -0.105114 -0.936033)             (9.27068 -0.0406254 -0.372719)             (7.00235 1.79377 -1.02264)             (9.20002 -0.051843 -0.235566)
        0.182             (9.28259 0.0400659 -1.14425)             (9.30188 -0.0406728 -0.384882)             (7.24104 1.92411 -1.24681)             (9.22924 -0.0529257 -0.242349)
        0.184             (9.16197 0.218326 -1.47538)             (9.32047 -0.0411137 -0.398072)             (7.49311 2.05025 -1.4164)             (9.24573 -0.0545022 -0.249768)
        0.186             (9.08587 0.423584 -1.70502)             (9.3142 -0.0420211 -0.410691)             (7.78188 2.19599 -1.43945)             (9.2374 -0.0566481 -0.25666)
        0.188             (9.04232 0.601995 -1.63895)             (9.29687 -0.042921 -0.422191)             (8.13693 2.36654 -1.31861)             (9.2181 -0.0588915 -0.262624)
         0.19             (9.00052 0.709645 -1.2908)             (9.28942 -0.0432704 -0.433063)             (8.54502 2.56686 -1.12416)             (9.20875 -0.0606891 -0.268002)
        0.192             (8.89232 0.76118 -0.878423)             (9.29404 -0.0430288 -0.444461)             (8.92607 2.72053 -0.874639)             (9.21142 -0.0620135 -0.273621)
        0.194             (8.67694 0.825326 -0.612139)             (9.29141 -0.0429327 -0.457017)             (9.18257 2.79256 -0.583341)             (9.20674 -0.0636228 -0.279935)
        0.196             (8.40215 0.938533 -0.517455)             (9.25908 -0.0437377 -0.470718)             (9.2931 2.78153 -0.329207)             (9.17226 -0.066286 -0.28694)
        0.198             (8.1804 1.08703 -0.479716)             (9.1938 -0.0452215 -0.48501)             (9.30554 2.70375 -0.204796)             (9.10474 -0.0697759 -0.294248)
          0.2             (8.08173 1.19594 -0.405791)             (9.11619 -0.0463006 -0.499208)             (9.28338 2.53567 -0.222748)             (9.02487 -0.0730012 -0.301361)
        0.202             (8.07936 1.1734 -0.313016)             (9.05637 -0.0461807 -0.512826)             (9.25825 2.21177 -0.282307)             (8.96278 -0.0751633 -0.307915)
        0.204             (8.07861 1.0235 -0.283397)             (9.03283 -0.0450045 -0.525795)             (9.19966 1.80567 -0.226413)             (8.93696 -0.0764277 -0.313853)
        0.206             (8.0007 0.856298 -0.364329)             (9.03985 -0.043891 -0.538803)             (9.05283 1.49704 -0.0108682)             (8.94158 -0.0779406 -0.319672)
        0.208             (7.8652 0.792461 -0.498731)             (9.05299 -0.0437032 -0.552529)             (8.81177 1.38766 0.241734)             (8.95212 -0.080567 -0.325859)
         0.21             (7.73759 0.862911 -0.587548)             (9.04258 -0.0442036 -0.567012)             (8.5167 1.42718 0.341819)             (8.93883 -0.0840817 -0.332437)
        0.212             (7.64627 0.984637 -0.590732)             (8.98846 -0.0444695 -0.581181)             (8.23016 1.46362 0.270111)             (8.88165 -0.0875458 -0.338621)
        0.214             (7.59024 1.05799 -0.544673)             (8.88839 -0.043996 -0.593933)             (8.00819 1.34392 0.107975)             (8.77843 -0.0904513 -0.343632)
        0.216             (7.54227 1.05926 -0.536538)             (8.76398 -0.0430287 -0.60523)             (7.8804 1.05896 -0.0330389)             (8.65072 -0.0930516 -0.34746)
        0.218             (7.4997 1.00726 -0.5705)             (8.65777 -0.0421463 -0.616298)             (7.87324 0.70748 -0.131759)             (8.54091 -0.0959254 -0.351006)
         0.22             (7.46828 0.944461 -0.516539)             (8.61413 -0.0417356 -0.62872)             (8.00692 0.339396 -0.204704)             (8.49308 -0.0994617 -0.3554)
        0.222             (7.405 0.914507 -0.296039)             (8.64605 -0.0413036 -0.642946)             (8.25084 -0.0392408 -0.181008)             (8.52008 -0.103193 -0.360921)
        0.224             (7.31777 0.974739 0.0121769)             (8.71437 -0.0404033 -0.657939)             (8.51219 -0.469313 -0.0948779)             (8.58268 -0.1067 -0.366795)
        0.226             (7.22852 1.11455 0.24835)             (8.74589 -0.0391377 -0.672373)             (8.70017 -0.902881 0.0135578)             (8.6077 -0.110094 -0.372074)
        0.228             (7.18019 1.30561 0.276611)             (8.68664 -0.0379882 -0.68558)             (8.77461 -1.2187 0.0692025)             (8.54107 -0.113823 -0.37631)
         0.23             (7.19821 1.47447 0.158635)             (8.54269 -0.0370424 -0.697754)             (8.74736 -1.32958 0.041226)             (8.38871 -0.117922 -0.37969)
        0.232             (7.22426 1.54594 0.0762608)             (8.3724 -0.0361283 -0.709306)             (8.64132 -1.34455 -0.0133431)             (8.20886 -0.122151 -0.382556)
        0.234             (7.16652 1.49605 0.15788)             (8.23972 -0.0349861 -0.72058)             (8.46762 -1.4235 0.035693)             (8.0652 -0.126235 -0.385178)
        0.236             (7.02089 1.33502 0.385534)             (8.17572 -0.033616 -0.73172)             (8.26185 -1.62574 0.196173)             (7.98855 -0.130193 -0.387649)
        0.238             (6.86088 1.08717 0.634474)             (8.1767 -0.0324708 -0.742752)             (8.08001 -1.94723 0.356664)             (7.97486 -0.134499 -0.390009)
         0.24             (6.74024 0.786898 0.787015)             (8.22123 -0.0318257 -0.753971)             (7.96781 -2.29455 0.411913)             (8.00221 -0.139467 -0.392454)
        0.242             (6.69234 0.507223 0.828838)             (8.27986 -0.031536 -0.764961)             (7.90776 -2.53266 0.284518)             (8.04077 -0.144951 -0.394764)
        0.244             (6.70608 0.275001 0.881189)             (8.31796 -0.0313566 -0.775346)             (7.8366 -2.67623 0.0556234)             (8.05548 -0.150667 -0.396765)
        0.246             (6.70137 0.123312 1.00457)             (8.31309 -0.0309977 -0.784936)             (7.68877 -2.76636 -0.1342)             (8.02348 -0.156331 -0.39843)
        0.248             (6.63521 0.09269 1.18291)             (8.27712 -0.0305655 -0.794022)             (7.50457 -2.88581 -0.208963)             (7.95629 -0.162033 -0.400071)
         0.25             (6.53214 0.176355 1.31683)             (8.24981 -0.0302222 -0.802806)             (7.35996 -2.98779 -0.216788)             (7.89324 -0.16797 -0.401956)
        0.252             (6.41388 0.339301 1.3377)             (8.2533 -0.0301172 -0.811422)             (7.29025 -2.9589 -0.231237)             (7.85583 -0.174348 -0.404295)
        0.254             (6.28937 0.553378 1.31166)             (8.25975 -0.0301738 -0.819553)             (7.25809 -2.73829 -0.297543)             (7.81567 -0.181147 -0.407041)
        0.256             (6.20377 0.785891 1.4104)             (8.22414 -0.0304924 -0.826855)             (7.2031 -2.43512 -0.441474)             (7.7275 -0.188474 -0.41012)
        0.258             (6.17729 0.929914 1.68454)             (8.1538 -0.0309014 -0.833347)             (7.10496 -2.22948 -0.639906)             (7.59834 -0.196187 -0.413685)
         0.26             (6.20307 0.943845 2.08554)             (8.1231 -0.031161 -0.839137)             (7.02134 -2.19201 -0.784485)             (7.50197 -0.204156 -0.41796)
        0.262             (6.27443 0.88677 2.42424)             (8.1984 -0.0309945 -0.843636)             (6.97383 -2.25545 -0.852815)             (7.50398 -0.212305 -0.422797)
        0.264             (6.35702 0.852266 2.5713)             (8.35457 -0.030243 -0.846667)             (6.92558 -2.26386 -0.861331)             (7.57771 -0.220722 -0.428328)
        0.266             (6.43643 0.949334 2.53337)             (8.48763 -0.0290523 -0.848195)             (6.80006 -2.09563 -0.907996)             (7.6187 -0.229692 -0.43462)
        0.268             (6.53173 1.17133 2.37222)             (8.5271 -0.0275941 -0.847547)             (6.58151 -1.85158 -1.07321)             (7.55613 -0.239437 -0.441744)
         0.27             (6.67431 1.47911 2.2036)             (8.5142 -0.0256129 -0.844743)             (6.35392 -1.66071 -1.3589)             (7.4322 -0.249645 -0.449697)
        0.272             (6.86759 1.75355 2.14051)             (8.55359 -0.0221008 -0.839442)             (6.21752 -1.59883 -1.65755)             (7.35097 -0.259516 -0.458415)
        0.274             (7.12072 1.9003 2.20861)             (8.68743 -0.0165173 -0.830554)             (6.2336 -1.66725 -1.88844)             (7.35352 -0.26876 -0.467648)
        0.276             (7.38408 1.93796 2.2987)             (8.84772 -0.0089016 -0.816803)             (6.29445 -1.64899 -2.0125)             (7.37113 -0.277644 -0.47713)
        0.278             (7.56759 1.92115 2.35156)             (8.94142 0.000435117 -0.797884)             (6.3002 -1.50126 -2.01635)             (7.31156 -0.286584 -0.486623)
         0.28             (7.5795 1.88039 2.40915)             (8.9654 0.0107314 -0.773252)             (6.24962 -1.29366 -1.87018)             (7.17289 -0.295892 -0.495215)
        0.282             (7.42584 1.84719 2.52907)             (9.01096 0.0221946 -0.741193)             (6.23587 -1.11953 -1.60681)             (7.0474 -0.305436 -0.502438)
        0.284             (7.20826 1.8966 2.68255)             (9.15823 0.034457 -0.700397)             (6.31433 -0.988732 -1.33318)             (7.01565 -0.31542 -0.507097)
        0.286             (7.02214 2.04912 2.8467)             (9.39015 0.0475763 -0.650269)             (6.47511 -0.811817 -1.1656)             (7.05983 -0.326315 -0.509418)
        0.288             (6.91238 2.26462 2.99068)             (9.62282 0.0612259 -0.590967)             (6.65521 -0.588259 -1.18232)             (7.09667 -0.338598 -0.509808)
         0.29             (6.87507 2.39211 3.07805)             (9.80421 0.0755368 -0.522955)             (6.83163 -0.398545 -1.31288)             (7.07635 -0.352004 -0.508517)
        0.292             (6.89362 2.31454 3.13996)             (9.95645 0.0910739 -0.446103)             (7.0583 -0.260126 -1.38756)             (7.02373 -0.365668 -0.505143)
        0.294             (6.94515 2.13103 3.21452)             (10.1264 0.108688 -0.359813)             (7.35094 -0.104861 -1.2705)             (6.98722 -0.378669 -0.498957)
        0.296             (7.03074 2.01384 3.22296)             (10.3199 0.128066 -0.263109)             (7.64363 0.107331 -1.01303)             (6.97574 -0.391235 -0.488997)
        0.298             (7.11347 2.04576 3.06707)             (10.5022 0.147783 -0.155572)             (7.81434 0.373265 -0.730208)             (6.96145 -0.404582 -0.474363)
          0.3             (7.18019 2.16065 2.75819)             (10.6548 0.16666 -0.0398094)             (7.85869 0.618048 -0.5178)             (6.92742 -0.419553 -0.456466)
        0.302             (7.24961 2.2276 2.39921)             (10.7941 0.184724 0.081363)             (7.83657 0.748067 -0.422119)             (6.89279 -0.435894 -0.436302)
        0.304             (7.37319 2.22763 2.1337)             (10.9365 0.202886 0.206662)             (7.8107 0.80471 -0.470694)             (6.87722 -0.452526 -0.414145)
        0.306             (7.58476 2.25908 2.00705)             (11.0643 0.221554 0.334809)             (7.7536 0.922806 -0.623766)             (6.86583 -0.468834 -0.389899)
        0.308             (7.86874 2.44535 1.90138)             (11.1407 0.239988 0.463507)             (7.58906 1.16905 -0.814998)             (6.82554 -0.485325 -0.364013)
         0.31             (8.15088 2.67273 1.69711)             (11.1608 0.257094 0.590685)             (7.3195 1.46541 -0.946177)             (6.75308 -0.502714 -0.336455)
        0.312             (8.35073 2.79858 1.44205)             (11.1615 0.272471 0.71413)             (7.06979 1.64887 -0.948103)             (6.68632 -0.521076 -0.30634)
        0.314             (8.45623 2.74448 1.2345)             (11.1773 0.287144 0.829728)             (6.8994 1.58092 -0.842244)             (6.66086 -0.539642 -0.276431)
        0.316             (8.48732 2.63917 1.11807)             (11.198 0.302139 0.935045)             (6.75751 1.3348 -0.714408)             (6.66705 -0.556984 -0.247821)
        0.318             (8.41314 2.64759 1.01084)             (11.1776 0.317347 1.02863)             (6.54171 1.08029 -0.595694)             (6.65904 -0.573021 -0.220657)
         0.32             (8.24639 2.79862 0.857237)             (11.0856 0.331863 1.11026)             (6.246 0.928615 -0.486487)             (6.60618 -0.58865 -0.19403)
        0.322             (8.02988 3.01413 0.651357)             (10.9401 0.345652 1.17937)             (5.95116 0.841695 -0.375915)             (6.52534 -0.604222 -0.167628)
        0.324             (7.85886 3.13617 0.456611)             (10.7877 0.359955 1.23442)             (5.74591 0.820461 -0.35821)             (6.46141 -0.61878 -0.141145)
        0.326             (7.80887 3.03555 0.412785)             (10.6617 0.375402 1.27458)             (5.66547 0.791529 -0.498915)             (6.44036 -0.631173 -0.115157)
        0.328             (7.83263 2.70418 0.503359)             (10.555 0.391609 1.29839)             (5.63119 0.766122 -0.729652)             (6.45513 -0.640871 -0.0917569)
         0.33             (7.79479 2.22916 0.598626)             (10.4423 0.408801 1.30568)             (5.52226 0.757639 -0.876094)             (6.47866 -0.64809 -0.070767)
        0.332             (7.61842 1.77599 0.651767)             (10.3082 0.426599 1.29741)             (5.37928 0.787918 -0.826551)             (6.4939 -0.653361 -0.0517715)
        0.334             (7.36702 1.44521 0.661544)             (10.1579 0.443993 1.27543)             (5.31713 0.869596 -0.629324)             (6.50349 -0.657421 -0.0340867)