0 	3.59898 	0.0743033 	0.509029
0.0505051 	3.59898 	0.0743033 	0.509029
0.10101 	4.65866 	0.18823 	0.471714
0.151515 	4.65866 	0.18823 	0.471714
0.20202 	5.71833 	0.302156 	0.434399
0.252525 	5.71833 	0.302156 	0.434399
0.30303 	6.44931 	0.382676 	0.377738
0.353535 	6.44931 	0.382676 	0.377738
0.40404 	6.8829 	0.432971 	0.303573
0.454545 	6.8829 	0.432971 	0.303573
0.505051 	7.34932 	0.478612 	0.23946
0.555556 	7.34932 	0.478612 	0.23946
0.606061 	8.43944 	0.435826 	0.366334
0.656566 	8.43944 	0.435826 	0.366334
0.707071 	9.52956 	0.39304 	0.493208
0.757576 	9.52956 	0.39304 	0.493208
0.808081 	9.89648 	0.347473 	0.313539
0.858586 	9.89648 	0.347473 	0.313539
0.909091 	9.72887 	0.299851 	-0.0927039
0.959596 	9.72887 	0.299851 	-0.0927039
1.0101 	9.58835 	0.247018 	-0.444078
1.06061 	9.58835 	0.247018 	-0.444078
1.11111 	9.69162 	0.147291 	-0.301624
1.16162 	9.69162 	0.147291 	-0.301624
1.21212 	9.79489 	0.0475631 	-0.15917
1.26263 	9.79489 	0.0475631 	-0.15917
1.31313 	9.97681 	0.127605 	-0.0436679
1.36364 	9.97681 	0.127605 	-0.0436679
1.41414 	10.2059 	0.315507 	0.0556625
1.46465 	10.2059 	0.315507 	0.0556625
1.51515 	10.4 	0.435614 	0.15788
1.56566 	10.4 	0.435614 	0.15788
1.61616 	10.396 	0.17154 	0.276456
1.66667 	10.396 	0.17154 	0.276456
1.71717 	10.3919 	-0.0925346 	0.395032
0 	10.3919 	-0.0925346 	0.395032
0.0505051 	10.5698 	-0.30215 	0.623668
0.10101 	10.5698 	-0.30215 	0.623668
0.151515 	10.8353 	-0.485544 	0.905294
0.20202 	10.8353 	-0.485544 	0.905294
0.252525 	11.0923 	-0.544762 	1.11696
0.30303 	11.0923 	-0.544762 	1.11696
0.353535 	11.3154 	-0.107276 	1.0488
0.40404 	11.3154 	-0.107276 	1.0488
0.454545 	11.5384 	0.330211 	0.98063
0.505051 	11.5384 	0.330211 	0.98063
0.555556 	11.646 	0.173356 	1.25346
0.606061 	11.646 	0.173356 	1.25346
0.656566 	11.7098 	-0.208939 	1.65563
0.707071 	11.7098 	-0.208939 	1.65563
0.757576 	11.802 	-0.480149 	2.03116
0.808081 	11.802 	-0.480149 	2.03116
0.858586 	11.9798 	-0.418108 	2.32677
0.909091 	11.9798 	-0.418108 	2.32677
0.959596 	12.1576 	-0.356067 	2.62237
1.0101 	12.1576 	-0.356067 	2.62237
1.06061 	12.4358 	-0.100445 	2.54097
1.11111 	12.4358 	-0.100445 	2.54097
1.16162 	12.7433 	0.211377 	2.35012
1.21212 	12.7433 	0.211377 	2.35012
1.26263 	13.0061 	0.422985 	2.16403
1.31313 	13.0061 	0.422985 	2.16403
1.36364 	13.1644 	0.40076 	1.98904
1.41414 	13.1644 	0.40076 	1.98904
1.46465 	13.3227 	0.378535 	1.81405
1.51515 	13.3227 	0.378535 	1.81405
1.56566 	12.4166 	0.426861 	1.69113
1.61616 	12.4166 	0.426861 	1.69113
1.66667 	11.2848 	0.490152 	1.57926
1.71717 	11.2848 	0.490152 	1.57926
1.76768 	9.93718 	0.506541 	1.35242
1.81818 	9.93718 	0.506541 	1.35242
1.86869 	8.18871 	0.435826 	0.912067
1.91919 	8.18871 	0.435826 	0.912067
1.9697 	6.44024 	0.36511 	0.471718
2.0202 	6.44024 	0.36511 	0.471718
2.07071 	6.60107 	0.400279 	0.35178
2.12121 	6.60107 	0.400279 	0.35178
2.17172 	7.03466 	0.450574 	0.277615
2.22222 	7.03466 	0.450574 	0.277615
2.27273 	7.73086 	0.463636 	0.283866
2.32323 	7.73086 	0.463636 	0.283866
2.37374 	8.82098 	0.420851 	0.41074
2.42424 	8.82098 	0.420851 	0.41074
2.47475 	9.9111 	0.378065 	0.537614
2.52525 	9.9111 	0.378065 	0.537614
2.57576 	9.83782 	0.330805 	0.171354
2.62626 	9.83782 	0.330805 	0.171354
2.67677 	9.67021 	0.283183 	-0.234889
2.72727 	9.67021 	0.283183 	-0.234889
2.77778 	9.62449 	0.212114 	-0.394219
2.82828 	9.62449 	0.212114 	-0.394219
2.87879 	9.72776 	0.112386 	-0.251765
2.92929 	9.72776 	0.112386 	-0.251765
2.9798 	9.83104 	0.0126584 	-0.109311
3.0303 	9.83104 	0.0126584 	-0.109311
3.08081 	10.057 	0.193371 	-0.00890227
3.13131 	10.057 	0.193371 	-0.00890227
3.18182 	10.2861 	0.381273 	0.0904281
3.23232 	10.2861 	0.381273 	0.0904281
3.28283 	10.3986 	0.343188 	0.199381
3.33333 	10.3986 	0.343188 	0.199381
1.76768 	10.3946 	0.0791136 	0.317958
1.81818 	10.3946 	0.0791136 	0.317958
1.86869 	10.3972 	-0.182944 	0.44061
1.91919 	10.3972 	-0.182944 	0.44061
1.9697 	10.6627 	-0.366338 	0.722237
2.0202 	10.6627 	-0.366338 	0.722237
2.07071 	10.9282 	-0.549732 	1.00386
2.12121 	10.9282 	-0.549732 	1.00386
2.17172 	11.1704 	-0.391642 	1.0931
2.22222 	11.1704 	-0.391642 	1.0931
2.27273 	11.3935 	0.0458446 	1.02494
2.32323 	11.3935 	0.0458446 	1.02494
2.37374 	11.6046 	0.421847 	0.992047
2.42424 	11.6046 	0.421847 	0.992047
2.47475 	11.6683 	0.0395529 	1.39422
2.52525 	11.6683 	0.0395529 	1.39422
2.57576 	11.7321 	-0.342742 	1.79639
2.62626 	11.7321 	-0.342742 	1.79639
2.67677 	11.8643 	-0.458435 	2.13463
2.72727 	11.8643 	-0.458435 	2.13463
2.77778 	12.042 	-0.396393 	2.43023
2.82828 	12.042 	-0.396393 	2.43023
2.87879 	12.236 	-0.30313 	2.66503
2.92929 	12.236 	-0.30313 	2.66503
2.9798 	12.5435 	0.00869239 	2.47418
3.0303 	12.5435 	0.00869239 	2.47418
3.08081 	12.8509 	0.320514 	2.28333
3.13131 	12.8509 	0.320514 	2.28333
3.18182 	12.1814 	0.314703 	1.97449
3.23232 	12.1814 	0.314703 	1.97449
3.28283 	10.9857 	0.137858 	1.60214
3.33333 	10.9857 	0.137858 	1.60214
3.38384 	9.73211 	0.0177202 	1.23284
3.43434 	9.73211 	0.0177202 	1.23284
3.48485 	8.20584 	0.164916 	0.877986
3.53535 	8.20584 	0.164916 	0.877986
3.58586 	6.67956 	0.312112 	0.523131
3.63636 	6.67956 	0.312112 	0.523131
3.68687 	6.52519 	0.391477 	0.364759
3.73737 	6.52519 	0.391477 	0.364759
3.78788 	6.95878 	0.441772 	0.290594
3.83838 	6.95878 	0.441772 	0.290594
3.88889 	7.54009 	0.471124 	0.261663
3.93939 	7.54009 	0.471124 	0.261663
3.9899 	8.63021 	0.428338 	0.388537
4.0404 	8.63021 	0.428338 	0.388537
4.09091 	9.72033 	0.385552 	0.515411
4.14141 	9.72033 	0.385552 	0.515411
4.19192 	9.86715 	0.339139 	0.242447
4.24242 	9.86715 	0.339139 	0.242447
4.29293 	9.69954 	0.291517 	-0.163797
4.34343 	9.69954 	0.291517 	-0.163797
4.39394 	9.60642 	0.229566 	-0.419148
4.44444 	9.60642 	0.229566 	-0.419148
4.49495 	9.70969 	0.129838 	-0.276694
4.54545 	9.70969 	0.129838 	-0.276694
4.59596 	9.81296 	0.0301107 	-0.13424
4.64646 	9.81296 	0.0301107 	-0.13424
4.69697 	10.0169 	0.160488 	-0.0262851
4.74747 	10.0169 	0.160488 	-0.0262851
4.79798 	10.246 	0.34839 	0.0730453
4.84848 	10.246 	0.34839 	0.0730453
4.89899 	10.3993 	0.389401 	0.178631
4.94949 	10.3993 	0.389401 	0.178631
5 	10.3953 	0.125327 	0.297207
3.38384 	10.3953 	0.125327 	0.297207
3.43434 	10.3912 	-0.138748 	0.415783
3.48485 	10.3912 	-0.138748 	0.415783
3.53535 	10.6163 	-0.334244 	0.672952
3.58586 	10.6163 	-0.334244 	0.672952
3.63636 	10.8818 	-0.517638 	0.954579
3.68687 	10.8818 	-0.517638 	0.954579
3.73737 	11.1314 	-0.468202 	1.10503
3.78788 	11.1314 	-0.468202 	1.10503
3.83838 	11.3544 	-0.0307156 	1.03687
3.88889 	11.3544 	-0.0307156 	1.03687
3.93939 	11.5775 	0.406771 	0.968701
3.9899 	11.5775 	0.406771 	0.968701
4.0404 	11.6572 	0.106454 	1.32384
4.09091 	11.6572 	0.106454 	1.32384
4.14141 	11.7209 	-0.27584 	1.72601
4.19192 	11.7209 	-0.27584 	1.72601
4.24242 	11.8331 	-0.469292 	2.0829
4.29293 	11.8331 	-0.469292 	2.0829
4.34343 	12.0109 	-0.407251 	2.3785
4.39394 	12.0109 	-0.407251 	2.3785
4.44444 	12.1887 	-0.345209 	2.6741
4.49495 	12.1887 	-0.345209 	2.6741
4.54545 	12.4897 	-0.0458765 	2.50758
4.59596 	12.4897 	-0.0458765 	2.50758
4.64646 	12.7971 	0.265946 	2.31672
4.69697 	12.7971 	0.265946 	2.31672
4.74747 	12.9767 	0.235185 	1.79113
4.79798 	12.9767 	0.235185 	1.79113
4.84848 	13.015 	-0.174219 	0.895567
4.89899 	13.015 	-0.174219 	0.895567
4.94949 	13.0532 	-0.583623 	1.57494e-14
5 	13.0532 	-0.583623 	1.57494e-14
