# Probe 0 (0 1 0.5)
# Probe 1 (2.5 1 0.5)
# Probe 2 (0 1 0.375)
# Probe 3 (2.5 1 0.375)
#       Probe             0             1             2             3
#        Time
        0.002             (4.75685 -0.586031 -3.40853)             (10.616 -0.00538872 -0.0591988)             (4.8865 0.0597052 -3.03033)             (10.6103 -0.00533252 -0.0430914)
        0.004             (4.94165 -0.695323 -3.433)             (10.5824 -0.00502112 -0.06077)             (5.69191 0.0659584 -3.0996)             (10.5765 -0.0049714 -0.0442461)
        0.006             (5.08634 -0.83728 -3.19766)             (10.5884 -0.0038728 -0.0606704)             (6.58559 0.0349663 -2.88601)             (10.5824 -0.00382587 -0.0441912)
        0.008             (5.24293 -0.981403 -2.91398)             (10.6434 -0.00272952 -0.0601625)             (7.38501 -0.0724555 -2.57572)             (10.6373 -0.00268161 -0.0438408)
         0.01             (5.40502 -1.07844 -2.80644)             (10.7415 -0.00206168 -0.0606243)             (7.91248 -0.361535 -2.31216)             (10.7353 -0.00200818 -0.0441961)
        0.012             (5.49539 -1.1376 -2.83878)             (10.8478 -0.00181266 -0.0619785)             (8.17186 -0.84877 -2.08652)             (10.8414 -0.00175198 -0.0452033)
        0.014             (5.47636 -1.13367 -2.79906)             (10.91 -0.00168955 -0.0626444)             (8.30976 -1.36232 -1.81916)             (10.9035 -0.00162392 -0.0457141)
        0.016             (5.40582 -1.05859 -2.56368)             (10.9055 -0.00168707 -0.0615994)             (8.49417 -1.72942 -1.50919)             (10.899 -0.0016214 -0.0449812)
        0.018             (5.36691 -0.915304 -2.24268)             (10.8731 -0.00194481 -0.0596305)             (8.7854 -1.89509 -1.21686)             (10.8666 -0.00188133 -0.0435726)
         0.02             (5.38985 -0.760656 -1.9681)             (10.8766 -0.00236984 -0.0584793)             (9.11082 -1.97003 -0.979114)             (10.8701 -0.00230661 -0.0427532)
        0.022             (5.41486 -0.727752 -1.83928)             (10.93 -0.00256126 -0.0594596)             (9.33719 -2.05761 -0.79297)             (10.9233 -0.00249589 -0.0434792)
        0.024             (5.37104 -0.827274 -1.7776)             (10.9793 -0.00242584 -0.0619218)             (9.43448 -2.08982 -0.545669)             (10.9723 -0.00236096 -0.0452815)
        0.026             (5.27304 -0.893506 -1.64806)             (10.9672 -0.00247972 -0.0640958)             (9.45726 -1.82341 -0.177511)             (10.9598 -0.00242187 -0.0468724)
        0.028             (5.19809 -0.795986 -1.43664)             (10.9042 -0.00326321 -0.0650112)             (9.46001 -1.21899 0.25944)             (10.8966 -0.0032174 -0.0475442)
         0.03             (5.19552 -0.579536 -1.2411)             (10.8559 -0.0043416 -0.0653414)             (9.43775 -0.532943 0.656412)             (10.8481 -0.00430423 -0.0477851)
        0.032             (5.23536 -0.408573 -1.13357)             (10.8615 -0.00467902 -0.0665608)             (9.36014 -0.0400406 0.916996)             (10.8534 -0.00464018 -0.0486689)
        0.034             (5.25644 -0.399305 -1.06511)             (10.8915 -0.0038328 -0.0692633)             (9.2619 0.115759 1.01689)             (10.883 -0.00378471 -0.0506292)
        0.036             (5.2521 -0.476197 -0.967417)             (10.8988 -0.00250129 -0.0723242)             (9.17153 0.111056 1.01015)             (10.8899 -0.00244114 -0.0528468)
        0.038             (5.28727 -0.562846 -0.762724)             (10.8929 -0.0018054 -0.074003)             (9.14197 0.13348 0.97086)             (10.8837 -0.00173607 -0.054053)
         0.04             (5.43 -0.530863 -0.40075)             (10.9343 -0.00209654 -0.0734741)             (9.21061 0.212956 0.97597)             (10.925 -0.00202017 -0.0536465)
        0.042             (5.66987 -0.417273 0.118296)             (11.0536 -0.00248401 -0.0714961)             (9.37868 0.207822 1.03362)             (11.0443 -0.00240266 -0.0521823)
        0.044             (5.90824 -0.2275 0.693233)             (11.2001 -0.00216318 -0.069701)             (9.61338 0.0675963 1.122)             (11.1908 -0.00207968 -0.0508494)
        0.046             (6.07987 0.0841593 1.20607)             (11.2904 -0.00128251 -0.0692309)             (9.84532 -0.0781129 1.17773)             (11.2809 -0.00120072 -0.0504777)
        0.048             (6.1978 0.494607 1.57221)             (11.2951 -0.000879738 -0.0706165)             (10.0203 -0.0745364 1.17122)             (11.2853 -0.000800139 -0.0514497)
         0.05             (6.33979 1.00901 1.78544)             (11.2609 -0.00147991 -0.0734166)             (10.1409 0.0813671 1.13344)             (11.2506 -0.00139767 -0.0534417)
        0.052             (6.5677 1.5181 1.93682)             (11.2456 -0.00256847 -0.0766798)             (10.2627 0.285562 1.07697)             (11.2347 -0.00247778 -0.0557652)
        0.054             (6.9002 1.90877 2.15292)             (11.2564 -0.00321875 -0.079465)             (10.471 0.411893 1.00788)             (11.2449 -0.00312123 -0.0577396)
        0.056             (7.332 2.16315 2.46344)             (11.264 -0.00330262 -0.0811054)             (10.7927 0.446263 0.900704)             (11.2521 -0.00320725 -0.0588805)
        0.058             (7.87403 2.35012 2.74854)             (11.2561 -0.00340086 -0.0815759)             (11.1441 0.489142 0.762798)             (11.2438 -0.00331583 -0.0591637)
         0.06             (8.48071 2.53967 2.82052)             (11.2498 -0.00400214 -0.0815398)             (11.4131 0.539481 0.577083)             (11.2372 -0.00392751 -0.0590664)
        0.062             (9.027 2.67278 2.62321)             (11.2519 -0.00481519 -0.0821218)             (11.5394 0.43956 0.408417)             (11.239 -0.00474188 -0.0594045)
        0.064             (9.38907 2.65814 2.28566)             (11.2379 -0.00518951 -0.0838952)             (11.56 0.0921796 0.22547)             (11.2246 -0.00510694 -0.060597)
        0.066             (9.54524 2.46832 1.98963)             (11.1894 -0.0048667 -0.0863797)             (11.539 -0.42356 0.0439858)             (11.1755 -0.00477003 -0.0622986)
        0.068             (9.57183 2.14953 1.8293)             (11.135 -0.00428807 -0.0885891)             (11.5439 -0.900293 -0.0719213)             (11.1206 -0.00417868 -0.0637934)
         0.07             (9.56579 1.83939 1.78777)             (11.1279 -0.00376744 -0.0898726)             (11.5994 -1.18066 -0.0757717)             (11.1129 -0.00364796 -0.0646078)
        0.072             (9.57564 1.65857 1.80155)             (11.1774 -0.00323775 -0.0903648)             (11.6527 -1.23967 0.012779)             (11.162 -0.00310786 -0.064839)
        0.074             (9.55851 1.6844 1.7322)             (11.2283 -0.002665 -0.0906501)             (11.6153 -1.20249 0.135509)             (11.2126 -0.00252478 -0.0649123)
        0.076             (9.4822 1.88083 1.50383)             (11.224 -0.00232924 -0.0911498)             (11.439 -1.12056 0.22473)             (11.2077 -0.00218306 -0.0651331)
        0.078             (9.38391 2.10848 1.15803)             (11.1769 -0.0026346 -0.092126)             (11.1497 -1.05853 0.250074)             (11.1601 -0.00248654 -0.0656898)
         0.08             (9.29212 2.17262 0.736524)             (11.154 -0.00360227 -0.0938757)             (10.84 -1.09603 0.25442)             (11.1365 -0.00345407 -0.0667969)
        0.082             (9.17182 2.00455 0.272846)             (11.1901 -0.0045183 -0.0968719)             (10.5484 -1.21455 0.255689)             (11.1718 -0.00436579 -0.0687974)
        0.084             (8.97473 1.64735 -0.160608)             (11.2421 -0.00465324 -0.101058)             (10.2422 -1.32731 0.23349)             (11.2229 -0.00448846 -0.0716503)
        0.086             (8.71447 1.29054 -0.443815)             (11.2419 -0.00410448 -0.105297)             (9.88953 -1.32647 0.137975)             (11.2218 -0.00392457 -0.0745294)
        0.088             (8.45228 1.06118 -0.563276)             (11.1787 -0.00366348 -0.108037)             (9.4696 -1.22239 0.00418273)             (11.1577 -0.00347248 -0.0763035)
         0.09             (8.25638 0.993961 -0.570565)             (11.1034 -0.00384308 -0.108715)             (9.03173 -1.0863 -0.127123)             (11.0817 -0.00364776 -0.0765646)
        0.092             (8.11108 1.00887 -0.550387)             (11.0544 -0.00425909 -0.108601)             (8.63696 -1.00188 -0.271022)             (11.0321 -0.00405803 -0.0762363)
        0.094             (7.92394 0.967401 -0.595195)             (11.0085 -0.00400622 -0.109775)             (8.29173 -0.980311 -0.463905)             (10.9854 -0.00379132 -0.076831)
        0.096             (7.65692 0.830155 -0.686601)             (10.9234 -0.00266315 -0.113301)             (7.99508 -0.95069 -0.679715)             (10.8993 -0.00242829 -0.0791209)
        0.098             (7.38718 0.648424 -0.790692)             (10.8139 -0.000950579 -0.118242)             (7.73065 -0.852515 -0.852395)             (10.7886 -0.000698851 -0.0824224)
          0.1             (7.24233 0.505901 -0.856149)             (10.7518 -1.36754e-05 -0.12301)             (7.53476 -0.630611 -0.89435)             (10.7254 0.000243993 -0.0855762)
        0.102             (7.27804 0.425313 -0.873535)             (10.7856 -0.000235198 -0.126861)             (7.45273 -0.362696 -0.806679)             (10.7579 2.10377e-05 -0.0880507)
        0.104             (7.47324 0.383607 -0.904283)             (10.878 -0.00109482 -0.130507)             (7.47628 -0.106583 -0.744902)             (10.8492 -0.00084623 -0.0903471)
        0.106             (7.77598 0.354955 -0.977187)             (10.9448 -0.00180131 -0.135126)             (7.55825 0.136338 -0.872651)             (10.9146 -0.00154686 -0.0933282)
        0.108             (8.14384 0.329126 -1.07591)             (10.9434 -0.00197763 -0.141163)             (7.68506 0.364438 -1.19103)             (10.9118 -0.00170176 -0.097317)
         0.11             (8.50315 0.364457 -1.19529)             (10.9045 -0.00168288 -0.147838)             (7.83845 0.507221 -1.49321)             (10.8713 -0.00137742 -0.101742)
        0.112             (8.7589 0.489334 -1.32827)             (10.8723 -0.00126745 -0.154057)             (7.93677 0.531781 -1.54051)             (10.8375 -0.000933693 -0.105804)
        0.114             (8.87047 0.667808 -1.39913)             (10.8387 -0.0010462 -0.15943)             (7.94662 0.533847 -1.28078)             (10.8024 -0.00069578 -0.109229)
        0.116             (8.85355 0.881054 -1.3515)             (10.759 -0.00113174 -0.164246)             (7.90766 0.623952 -0.853392)             (10.7211 -0.000769758 -0.112223)
        0.118             (8.79483 1.10854 -1.15739)             (10.6207 -0.00163217 -0.169107)             (7.90814 0.886687 -0.501354)             (10.5812 -0.00126629 -0.115229)
         0.12             (8.76077 1.32698 -0.862834)             (10.4727 -0.00241512 -0.174625)             (8.07331 1.2265 -0.284987)             (10.4314 -0.00205422 -0.118695)
        0.122             (8.7769 1.49134 -0.559656)             (10.3758 -0.00316243 -0.181412)             (8.48843 1.4718 -0.215312)             (10.3326 -0.00281213 -0.123051)
        0.124             (8.80935 1.49778 -0.412351)             (10.3404 -0.00350316 -0.189639)             (9.06202 1.408 -0.304937)             (10.2951 -0.00315577 -0.12842)
        0.126             (8.82668 1.33832 -0.42024)             (10.3252 -0.00345678 -0.19921)             (9.64679 1.20655 -0.4852)             (10.2777 -0.00310749 -0.134728)
        0.128             (8.84755 1.0649 -0.478388)             (10.2934 -0.00332722 -0.209624)             (10.1373 1.13394 -0.679854)             (10.2435 -0.00296801 -0.141612)
         0.13             (8.87638 0.785571 -0.499917)             (10.2482 -0.00333401 -0.220135)             (10.5243 1.27521 -0.76779)             (10.1959 -0.00296144 -0.148528)
        0.132             (8.90332 0.569529 -0.533147)             (10.2094 -0.00346102 -0.23032)             (10.8032 1.49993 -0.683271)             (10.1546 -0.00307802 -0.155167)
        0.134             (8.92429 0.379838 -0.633138)             (10.1749 -0.00334371 -0.240059)             (10.9251 1.58355 -0.51543)             (10.1176 -0.00295493 -0.161443)
        0.136             (8.9318 0.153936 -0.807322)             (10.1211 -0.00261673 -0.249864)             (10.8588 1.4867 -0.36152)             (10.0614 -0.00222495 -0.167724)
        0.138             (8.93616 -0.168849 -0.958609)             (10.0411 -0.00115867 -0.260285)             (10.6829 1.34265 -0.282894)             (9.97875 -0.000769003 -0.174423)
         0.14             (8.96239 -0.521044 -0.99758)             (9.95996 0.000721597 -0.271534)             (10.551 1.29416 -0.269318)             (9.89493 0.00107042 -0.181751)
        0.142             (9.03105 -0.80591 -0.96073)             (9.9064 0.00252326 -0.283127)             (10.5793 1.35367 -0.289464)             (9.83855 0.00277935 -0.189265)
        0.144             (9.12886 -0.920301 -0.955343)             (9.8763 0.00385493 -0.294328)             (10.7458 1.41148 -0.253428)             (9.80557 0.00402893 -0.196395)
        0.146             (9.25644 -0.851624 -1.05057)             (9.83951 0.00485677 -0.304655)             (10.8682 1.36031 -0.136032)             (9.76584 0.00495599 -0.202868)
        0.148             (9.40344 -0.72414 -1.207)             (9.77683 0.00612037 -0.315004)             (10.7747 1.19766 0.0212867)             (9.70015 0.0061444 -0.209319)
         0.15             (9.53132 -0.630519 -1.37087)             (9.70012 0.00816196 -0.327231)             (10.4675 1.0163 0.164747)             (9.62021 0.00809489 -0.217099)
        0.152             (9.6129 -0.661215 -1.53719)             (9.63302 0.010829 -0.342347)             (10.0596 0.826547 0.275397)             (9.54959 0.0106435 -0.226944)
        0.154             (9.63565 -0.751677 -1.69021)             (9.58183 0.013343 -0.359556)             (9.70234 0.640328 0.328533)             (9.49463 0.0130092 -0.238265)
        0.156             (9.63144 -0.836857 -1.77211)             (9.5363 0.0150878 -0.37657)             (9.46406 0.478961 0.334444)             (9.44525 0.0145665 -0.249403)
        0.158             (9.62932 -0.841284 -1.74871)             (9.48945 0.0163014 -0.392031)             (9.27929 0.43175 0.394186)             (9.3946 0.0155797 -0.259403)
         0.16             (9.59566 -0.789927 -1.60368)             (9.44417 0.017974 -0.406719)             (9.03723 0.542606 0.585968)             (9.34549 0.0170099 -0.268824)
        0.162             (9.53162 -0.745713 -1.49136)             (9.39737 0.02082 -0.422952)             (8.65001 0.761185 0.850144)             (9.29464 0.0195668 -0.279339)
        0.164             (9.44256 -0.854326 -1.44355)             (9.33491 0.0244924 -0.441692)             (8.16334 0.938391 1.06891)             (9.22783 0.0229224 -0.291644)
        0.166             (9.33502 -1.14806 -1.52721)             (9.25225 0.0280504 -0.461601)             (7.66232 0.905038 1.20153)             (9.14068 0.0260936 -0.304775)
        0.168             (9.23349 -1.54465 -1.63129)             (9.1749 0.0311142 -0.480826)             (7.2339 0.651717 1.29578)             (9.05881 0.0287153 -0.3174)
         0.17             (9.14524 -1.91894 -1.63144)             (9.14251 0.0342069 -0.499124)             (6.90291 0.327769 1.40446)             (9.02189 0.0313163 -0.329345)
        0.172             (9.06431 -2.11542 -1.49556)             (9.16576 0.0380624 -0.517949)             (6.66333 0.0499734 1.48851)             (9.04044 0.0346278 -0.341661)
        0.174             (8.98566 -2.12732 -1.25014)             (9.20639 0.0426814 -0.538486)             (6.53862 -0.15308 1.52662)             (9.07607 0.0386478 -0.355212)
        0.176             (8.91147 -2.0276 -0.933463)             (9.20871 0.0473661 -0.560529)             (6.59506 -0.288238 1.50188)             (9.07308 0.0426773 -0.369859)
        0.178             (8.8178 -1.91517 -0.596267)             (9.15105 0.0516135 -0.582805)             (6.85366 -0.331567 1.43599)             (9.00996 0.0462176 -0.384685)
         0.18             (8.65671 -1.88114 -0.319035)             (9.05704 0.0557824 -0.604814)             (7.17824 -0.300716 1.3798)             (8.91041 0.049626 -0.399335)
        0.182             (8.47413 -1.891 -0.200952)             (8.95924 0.0606063 -0.627435)             (7.38619 -0.202293 1.28821)             (8.8069 0.0536389 -0.414452)
        0.184             (8.36549 -1.92512 -0.264595)             (8.86482 0.0661873 -0.651487)             (7.38021 -0.135634 1.11633)             (8.70651 0.0583619 -0.430641)
        0.186             (8.41523 -1.9118 -0.456572)             (8.76536 0.0716453 -0.67639)             (7.23788 -0.148935 0.874087)             (8.60088 0.0629189 -0.44749)
        0.188             (8.66429 -1.84688 -0.751066)             (8.67006 0.0763203 -0.700892)             (7.07507 -0.256843 0.591403)             (8.4993 0.0666664 -0.464099)
         0.19             (9.02452 -1.75869 -1.0705)             (8.61111 0.0804941 -0.724504)             (6.975 -0.382111 0.370666)             (8.43399 0.069898 -0.480113)
        0.192             (9.39855 -1.68735 -1.37089)             (8.60776 0.0850939 -0.747882)             (6.92297 -0.43684 0.245171)             (8.4241 0.0735509 -0.496011)
        0.194             (9.74168 -1.70067 -1.53776)             (8.633 0.0906504 -0.772071)             (6.8693 -0.37823 0.227779)             (8.44253 0.0781634 -0.512547)
        0.196             (10.0786 -1.78298 -1.42547)             (8.632 0.0968758 -0.797233)             (6.80914 -0.243573 0.325327)             (8.4344 0.0834588 -0.529851)
        0.198             (10.3642 -1.88246 -1.00728)             (8.57588 0.103276 -0.822739)             (6.74971 -0.114756 0.579773)             (8.37089 0.0889696 -0.547478)
          0.2             (10.4948 -1.96425 -0.449541)             (8.4902 0.109793 -0.848287)             (6.68193 -0.0285706 0.93742)             (8.27758 0.0946679 -0.565216)
        0.202             (10.4218 -1.93881 -0.0800596)             (8.42678 0.116618 -0.874341)             (6.57517 -0.0193987 1.24982)             (8.20625 0.100763 -0.583406)
        0.204             (10.2801 -1.80343 0.0557723)             (8.41305 0.12368 -0.900967)             (6.45029 -0.0196148 1.36595)             (8.18429 0.1072 -0.602103)
        0.206             (10.2594 -1.60459 0.142887)             (8.43305 0.130439 -0.92707)             (6.3723 0.00858702 1.27143)             (8.19579 0.113474 -0.620509)
        0.208             (10.472 -1.38555 0.38366)             (8.45175 0.136508 -0.951737)             (6.37854 0.0754512 1.07694)             (8.20579 0.119223 -0.637958)
         0.21             (10.7992 -1.29311 0.829519)             (8.44961 0.142093 -0.975135)             (6.40867 0.152567 0.965789)             (8.19474 0.124686 -0.654568)
        0.212             (11.0333 -1.37554 1.31522)             (8.42711 0.147718 -0.998759)             (6.37624 0.233328 1.01714)             (8.16295 0.130425 -0.671428)
        0.214             (11.023 -1.58421 1.65799)             (8.38924 0.153416 -1.02336)             (6.2465 0.301727 1.18928)             (8.11531 0.136497 -0.68909)
        0.216             (10.8715 -1.84616 1.82756)             (8.33606 0.158686 -1.04802)             (6.08292 0.343165 1.31381)             (8.05196 0.14245 -0.706895)
        0.218             (10.7553 -2.0672 1.95805)             (8.2718 0.163011 -1.07109)             (6.04588 0.42574 1.26955)             (7.97726 0.147792 -0.723637)
         0.22             (10.7269 -2.17232 2.02516)             (8.21133 0.166435 -1.09211)             (6.18765 0.56752 1.03186)             (7.90618 0.152598 -0.738975)
        0.222             (10.6751 -2.10697 1.96828)             (8.17097 0.169536 -1.11233)             (6.4863 0.728499 0.711106)             (7.85491 0.157467 -0.753793)
        0.224             (10.4523 -1.86966 1.73576)             (8.15474 0.172688 -1.13288)             (6.81541 0.850652 0.466651)             (7.82732 0.162826 -0.768898)
        0.226             (10.0636 -1.56494 1.43356)             (8.15623 0.175808 -1.15318)             (7.08741 0.862751 0.368364)             (7.81703 0.168628 -0.783878)
        0.228             (9.63104 -1.31099 1.1188)             (8.17193 0.178643 -1.17171)             (7.26718 0.739199 0.365814)             (7.82059 0.174661 -0.797596)
         0.23             (9.29919 -1.19043 0.804725)             (8.20285 0.180751 -1.18764)             (7.41096 0.509371 0.243101)             (7.8391 0.180521 -0.809442)
        0.232             (9.15403 -1.24283 0.469869)             (8.2377 0.181998 -1.20191)             (7.61198 0.259587 -0.133966)             (7.86124 0.186105 -0.820093)
        0.234             (9.10378 -1.33822 0.130823)             (8.24506 0.182121 -1.21563)             (7.87154 0.0804159 -0.593286)             (7.85554 0.191164 -0.830329)
        0.236             (9.01659 -1.36295 -0.171609)             (8.19698 0.180897 -1.22811)             (8.15127 0.0463612 -0.925076)             (7.79416 0.195504 -0.83963)
        0.238             (8.8536 -1.28492 -0.413866)             (8.10508 0.178389 -1.23748)             (8.36295 0.173787 -1.05041)             (7.68899 0.199179 -0.846622)
         0.24             (8.70161 -1.2097 -0.667601)             (8.02594 0.174925 -1.24269)             (8.47509 0.398177 -1.11068)             (7.5968 0.202553 -0.850528)
        0.242             (8.67923 -1.208 -1.0042)             (8.01417 0.170845 -1.24538)             (8.51759 0.59168 -1.31207)             (7.57209 0.2059 -0.852417)
        0.244             (8.81071 -1.21757 -1.39833)             (8.06834 0.165816 -1.2477)             (8.5188 0.708242 -1.6441)             (7.61323 0.208991 -0.853882)
        0.246             (8.97696 -1.15158 -1.71698)             (8.12853 0.159522 -1.25043)             (8.49079 0.742177 -1.91322)             (7.6603 0.211578 -0.855469)
        0.248             (9.01276 -1.01718 -1.87329)             (8.13602 0.151971 -1.25208)             (8.43276 0.696131 -1.95468)             (7.6548 0.213684 -0.856099)
         0.25             (8.88084 -0.896599 -1.8976)             (8.09351 0.143383 -1.25032)             (8.3759 0.584832 -1.85456)             (7.59976 0.215463 -0.854071)
        0.252             (8.72271 -0.887249 -1.86679)             (8.06127 0.134014 -1.2441)             (8.41338 0.469173 -1.82456)             (7.5557 0.217213 -0.848553)
        0.254             (8.71136 -0.966073 -1.82478)             (8.09241 0.123656 -1.23411)             (8.61767 0.422217 -1.94686)             (7.57577 0.21875 -0.839998)
        0.256             (8.91331 -1.04229 -1.75947)             (8.17543 0.111825 -1.22211)             (8.94237 0.432349 -2.1232)             (7.64841 0.219662 -0.8296)
        0.258             (9.252 -0.998206 -1.64036)             (8.24212 0.0983685 -1.20896)             (9.24246 0.399404 -2.21782)             (7.70548 0.219868 -0.817961)
         0.26             (9.55434 -0.852465 -1.5176)             (8.22859 0.0837964 -1.19459)             (9.37513 0.244826 -2.21658)             (7.6832 0.219769 -0.804996)
        0.262             (9.72621 -0.729527 -1.4191)             (8.12865 0.0684997 -1.17803)             (9.35602 0.0288331 -2.21582)             (7.57559 0.21968 -0.790109)
        0.264             (9.80534 -0.677135 -1.36895)             (7.99314 0.0529386 -1.15839)             (9.2886 -0.0936971 -2.29533)             (7.43362 0.219943 -0.77263)
        0.266             (9.87132 -0.633599 -1.3165)             (7.8892 0.0370576 -1.1352)             (9.26255 -0.0711125 -2.41477)             (7.32456 0.220431 -0.75216)
        0.268             (9.94122 -0.517835 -1.25711)             (7.85881 0.0206471 -1.10926)             (9.25812 -0.0016834 -2.48882)             (7.29032 0.220993 -0.729205)
         0.27             (9.98165 -0.350702 -1.24644)             (7.90069 0.00341981 -1.0817)             (9.18724 -0.00208201 -2.52007)             (7.32971 0.221426 -0.704485)
        0.272             (9.98367 -0.218874 -1.33174)             (7.97579 -0.0149653 -1.05328)             (8.99872 -0.097304 -2.59331)             (7.40379 0.221363 -0.678439)
        0.274             (9.98696 -0.179515 -1.45905)             (8.03011 -0.034594 -1.0231)             (8.72427 -0.209028 -2.71425)             (7.45857 0.220552 -0.650615)
        0.276             (10.0218 -0.180021 -1.50573)             (8.02632 -0.055474 -0.990023)             (8.42925 -0.239347 -2.7522)             (7.45684 0.219144 -0.620125)
        0.278             (10.0834 -0.161477 -1.40351)             (7.971 -0.0766447 -0.953326)             (8.15974 -0.217007 -2.56326)             (7.40499 0.217857 -0.586619)
         0.28             (10.1426 -0.130539 -1.20292)             (7.91069 -0.0975609 -0.914388)             (7.93385 -0.202511 -2.20965)             (7.34965 0.216922 -0.550914)
        0.282             (10.1934 -0.171078 -1.02166)             (7.8938 -0.118497 -0.875317)             (7.79479 -0.269511 -1.90934)             (7.33914 0.216058 -0.514434)
        0.284             (10.2336 -0.334797 -0.929522)             (7.92813 -0.139353 -0.837305)             (7.80811 -0.382143 -1.80167)             (7.38106 0.21514 -0.47804)
        0.286             (10.2672 -0.534766 -0.873294)             (7.97878 -0.159916 -0.79987)             (7.99715 -0.46445 -1.86562)             (7.44085 0.214164 -0.441072)
        0.288             (10.2549 -0.600125 -0.752367)             (8.01006 -0.179185 -0.761856)             (8.27744 -0.489732 -1.95087)             (7.48307 0.213751 -0.402831)
         0.29             (10.1534 -0.465796 -0.544999)             (8.02026 -0.196776 -0.722982)             (8.50637 -0.537478 -1.91322)             (7.50625 0.214724 -0.363462)
        0.292             (9.99778 -0.241336 -0.365326)             (8.03062 -0.212445 -0.684259)             (8.62692 -0.656771 -1.76168)             (7.53101 0.216612 -0.324062)
        0.294             (9.86745 -0.0975824 -0.343559)             (8.04424 -0.226427 -0.646809)             (8.68287 -0.81027 -1.62073)             (7.55991 0.218511 -0.284912)
        0.296             (9.79335 -0.111602 -0.534953)             (8.03553 -0.238736 -0.611464)             (8.72754 -0.929136 -1.50999)             (7.56756 0.219759 -0.246452)
        0.298             (9.7202 -0.200899 -0.890189)             (7.99061 -0.248968 -0.578364)             (8.74257 -1.0072 -1.35752)             (7.54019 0.220895 -0.208708)
          0.3             (9.56878 -0.224394 -1.27186)             (7.94333 -0.25662 -0.548311)             (8.67464 -1.07076 -1.09543)             (7.51152 0.222314 -0.172026)
        0.302             (9.32091 -0.144183 -1.56519)             (7.9503 -0.259595 -0.522046)             (8.51184 -1.15394 -0.76654)             (7.53821 0.224551 -0.13706)
        0.304             (9.03737 -0.0677465 -1.68546)             (8.02515 -0.259183 -0.499658)             (8.31582 -1.29863 -0.477099)             (7.63419 0.226588 -0.103805)
        0.306             (8.7758 -0.0520361 -1.60432)             (8.11124 -0.256504 -0.480484)             (8.14495 -1.37664 -0.291236)             (7.74322 0.227569 -0.071008)
        0.308             (8.60611 -0.150585 -1.34388)             (8.13643 -0.24996 -0.461568)             (8.01281 -1.31122 -0.209208)             (7.79303 0.226727 -0.03928)
         0.31             (8.549 -0.291972 -1.01041)             (8.09293 -0.238641 -0.444932)             (7.87336 -1.10271 -0.221713)             (7.77551 0.225183 -0.00918239)
        0.312             (8.55247 -0.353641 -0.749048)             (8.04759 -0.22257 -0.43339)             (7.67267 -0.839511 -0.287133)             (7.75702 0.223516 0.0172739)
        0.314             (8.54423 -0.317153 -0.604439)             (8.06764 -0.202773 -0.428864)             (7.43697 -0.628121 -0.353142)             (7.8047 0.220536 0.0388264)
        0.316             (8.45978 -0.254519 -0.489005)             (8.14652 -0.179682 -0.43034)             (7.24514 -0.447253 -0.348697)             (7.91194 0.215486 0.0559352)
        0.318             (8.28585 -0.16552 -0.325025)             (8.21569 -0.153659 -0.435103)             (7.14888 -0.251581 -0.242574)             (8.01049 0.208208 0.0704081)
         0.32             (8.07547 -0.0647275 -0.061123)             (8.22639 -0.124321 -0.441074)             (7.18847 -0.0455602 -0.0839039)             (8.05139 0.199447 0.083473)
        0.322             (7.97514 0.112891 0.231628)             (8.20029 -0.0912094 -0.448928)             (7.34287 0.153286 -0.0574328)             (8.05704 0.189692 0.0938965)
        0.324             (8.04743 0.298582 0.442745)             (8.1959 -0.0545086 -0.460934)             (7.51961 0.355757 -0.225979)             (8.08515 0.178814 0.0995079)
        0.326             (8.23052 0.369942 0.562321)             (8.23155 -0.0149564 -0.477616)             (7.62975 0.580404 -0.440947)             (8.15366 0.166222 0.0996178)
        0.328             (8.38843 0.304266 0.606817)             (8.2628 0.0268769 -0.497041)             (7.62134 0.895039 -0.551528)             (8.21791 0.151596 0.0955338)
         0.33             (8.40727 0.180992 0.685844)             (8.23714 0.0703558 -0.515737)             (7.5719 1.29328 -0.467175)             (8.22588 0.134968 0.0892186)
        0.332             (8.27328 0.140396 0.823194)             (8.15687 0.115744 -0.531959)             (7.6006 1.72538 -0.224521)             (8.18001 0.117221 0.0818141)