# Probe 0 (0 1 0.5)
# Probe 1 (2.5 1 0.5)
# Probe 2 (0 1 0.375)
# Probe 3 (2.5 1 0.375)
#       Probe             0             1             2             3
#        Time
        0.002             (4.59446 -0.345437 -2.40005)             (10.0256 0.00759438 -0.0613059)             (4.02677 -0.557352 -1.98454)             (10.0197 0.0076036 -0.0445947)
        0.004             (5.10833 -0.337805 -2.27225)             (10.0248 0.00821071 -0.0598998)             (4.13674 -0.415642 -1.97777)             (10.019 0.00819688 -0.0435778)
        0.006             (5.61949 -0.395166 -2.0477)             (10.023 0.00906127 -0.0596068)             (4.18174 -0.20433 -1.98679)             (10.0172 0.00902238 -0.0433733)
        0.008             (6.08236 -0.522547 -1.62585)             (10.0088 0.00975497 -0.0607828)             (4.24599 -0.100563 -1.93354)             (10.0028 0.00969216 -0.0442412)
         0.01             (6.43128 -0.600938 -1.08156)             (9.96743 0.010294 -0.0630535)             (4.36708 -0.143995 -1.80429)             (9.96116 0.0102103 -0.0459082)
        0.012             (6.64519 -0.552471 -0.61079)             (9.8931 0.0107701 -0.0655905)             (4.5106 -0.227516 -1.63611)             (9.88651 0.0106662 -0.0477695)
        0.014             (6.82875 -0.344821 -0.367371)             (9.80324 0.0112798 -0.0674543)             (4.63609 -0.238137 -1.55342)             (9.79637 0.0111513 -0.0491408)
        0.016             (7.11635 -0.0715289 -0.297978)             (9.72995 0.0118942 -0.0679569)             (4.77167 -0.173203 -1.5775)             (9.72294 0.0117357 -0.0495216)
        0.018             (7.53662 0.141776 -0.170315)             (9.68691 0.0128182 -0.0672517)             (4.9896 -0.157218 -1.60944)             (9.67988 0.0126286 -0.0490204)
         0.02             (7.91299 0.197164 0.122541)             (9.65121 0.0143087 -0.0664141)             (5.31947 -0.230263 -1.48207)             (9.64418 0.0140892 -0.0484178)
        0.022             (8.03436 0.0720541 0.437685)             (9.59061 0.0164248 -0.0665346)             (5.68612 -0.368194 -1.14853)             (9.58347 0.0161767 -0.0485097)
        0.024             (7.90726 -0.127975 0.553907)             (9.50931 0.0187666 -0.0677207)             (5.98481 -0.467822 -0.76061)             (9.50195 0.0184881 -0.0493773)
        0.026             (7.77598 -0.276634 0.331183)             (9.45416 0.0205384 -0.0690229)             (6.14271 -0.41986 -0.582855)             (9.44656 0.0202258 -0.0503296)
        0.028             (7.88951 -0.35679 -0.107708)             (9.46468 0.0212713 -0.0694977)             (6.18829 -0.22165 -0.692944)             (9.45693 0.0209207 -0.0506757)
         0.03             (8.27005 -0.386977 -0.442325)             (9.52276 0.0213087 -0.0694414)             (6.1892 0.0598694 -0.854649)             (9.51493 0.0209185 -0.0506263)
        0.032             (8.71143 -0.430547 -0.514077)             (9.56631 0.0214778 -0.0701933)             (6.17099 0.315496 -0.838481)             (9.55833 0.0210482 -0.0511568)
        0.034             (8.94539 -0.494198 -0.435401)             (9.55697 0.0222491 -0.0725362)             (6.12828 0.520773 -0.570146)             (9.54867 0.0217796 -0.0528428)
        0.036             (8.92574 -0.557919 -0.359585)             (9.52276 0.0235386 -0.075543)             (6.09333 0.685801 -0.134643)             (9.51406 0.0230304 -0.0550147)
        0.038             (8.79923 -0.62391 -0.338994)             (9.52251 0.0248302 -0.0774693)             (6.12425 0.842022 0.3315)             (9.51348 0.0242861 -0.0564021)
         0.04             (8.66674 -0.715788 -0.337193)             (9.57322 0.0258743 -0.0776703)             (6.26941 1.0251 0.761422)             (9.56403 0.0252976 -0.0565312)
        0.042             (8.53065 -0.847353 -0.408049)             (9.62698 0.0268266 -0.0773296)             (6.40571 1.21468 1.08448)             (9.61768 0.0262205 -0.0562591)
        0.044             (8.32208 -0.964587 -0.569261)             (9.6251 0.0279698 -0.0780981)             (6.40588 1.37769 1.2775)             (9.61558 0.0273336 -0.056787)
        0.046             (8.03975 -1.00422 -0.801943)             (9.56573 0.0294823 -0.0801796)             (6.23981 1.4895 1.34843)             (9.55586 0.0288128 -0.0582642)
        0.048             (7.78303 -0.83202 -1.0255)             (9.50689 0.0312538 -0.0821644)             (6.0013 1.55272 1.31641)             (9.49669 0.0305471 -0.059665)
         0.05             (7.59531 -0.502424 -1.12888)             (9.50295 0.0329294 -0.08312)             (5.81749 1.68639 1.29247)             (9.49254 0.03218 -0.0603092)
        0.052             (7.42786 -0.197632 -1.1521)             (9.54978 0.0343663 -0.084024)             (5.71142 1.89516 1.3031)             (9.53916 0.0335705 -0.0609091)
        0.054             (7.19031 -0.00779777 -1.16339)             (9.59647 0.0355781 -0.0867206)             (5.64941 2.07848 1.30199)             (9.58546 0.0347335 -0.06281)
        0.056             (6.89596 0.0755843 -1.21348)             (9.60363 0.0365272 -0.0916518)             (5.61002 2.1492 1.20712)             (9.59198 0.0356344 -0.0663361)
        0.058             (6.6296 0.110742 -1.22822)             (9.58144 0.0373945 -0.0968022)             (5.63325 2.04445 1.02763)             (9.56911 0.0364541 -0.0700205)
         0.06             (6.48235 0.171574 -1.08323)             (9.56865 0.0385079 -0.0999023)             (5.76542 1.79937 0.831563)             (9.55581 0.037516 -0.07221)
        0.062             (6.43981 0.254956 -0.819437)             (9.58571 0.0400362 -0.100575)             (5.92521 1.53626 0.75432)             (9.57258 0.038992 -0.0726289)
        0.064             (6.41726 0.361694 -0.626763)             (9.61319 0.0417597 -0.100808)             (6.01073 1.30781 0.768754)             (9.5998 0.0406637 -0.0727205)
        0.066             (6.34546 0.496235 -0.627835)             (9.61728 0.0433559 -0.102716)             (5.99716 1.14212 0.698672)             (9.60348 0.0422102 -0.0740227)
        0.068             (6.24795 0.689019 -0.802267)             (9.59144 0.0447611 -0.106092)             (5.95557 1.00159 0.419524)             (9.57708 0.0435634 -0.0763837)
         0.07             (6.18206 0.935359 -0.940703)             (9.5669 0.0462933 -0.109103)             (5.98119 0.86015 0.0396484)             (9.55202 0.0450327 -0.0784703)
        0.072             (6.19991 1.17865 -0.853338)             (9.5831 0.0482766 -0.110673)             (6.11856 0.736399 -0.291497)             (9.56783 0.0469414 -0.0795014)
        0.074             (6.24928 1.25259 -0.515904)             (9.6481 0.0505449 -0.111661)             (6.2828 0.587792 -0.378778)             (9.63248 0.0491289 -0.0801019)
        0.076             (6.28036 1.09468 -0.0775066)             (9.72818 0.0525586 -0.113838)             (6.37955 0.37454 -0.262299)             (9.71207 0.0510662 -0.0815604)
        0.078             (6.26678 0.827057 0.345865)             (9.77934 0.053985 -0.117701)             (6.39714 0.14591 -0.049067)             (9.76258 0.0524231 -0.0842338)
         0.08             (6.2155 0.628592 0.721572)             (9.78765 0.0552604 -0.12225)             (6.37495 -0.0299681 0.176541)             (9.77017 0.0536305 -0.0873935)
        0.082             (6.19813 0.553598 1.0756)             (9.77766 0.0570291 -0.126322)             (6.34675 -0.157751 0.323262)             (9.75949 0.0553204 -0.0901937)
        0.084             (6.28202 0.507626 1.3825)             (9.77938 0.0597066 -0.129898)             (6.28754 -0.274954 0.317622)             (9.76056 0.0579056 -0.0926237)
        0.086             (6.48386 0.377468 1.59809)             (9.79194 0.062988 -0.133582)             (6.1771 -0.452007 0.172888)             (9.77244 0.0610885 -0.0951231)
        0.088             (6.73615 0.118085 1.70029)             (9.78689 0.0661333 -0.137433)             (6.02662 -0.742681 -0.0500968)             (9.76668 0.0641357 -0.0977335)
         0.09             (6.85345 -0.186524 1.84658)             (9.74948 0.0687748 -0.140914)             (5.93189 -1.10937 -0.0991002)             (9.72859 0.0666782 -0.100063)
        0.092             (6.78558 -0.41623 2.13135)             (9.7097 0.0711383 -0.143532)             (5.9552 -1.44577 0.140475)             (9.6882 0.0689347 -0.101754)
        0.094             (6.62336 -0.528683 2.46645)             (9.71905 0.0735603 -0.145698)             (6.0837 -1.62319 0.557459)             (9.69695 0.0712367 -0.103108)
        0.096             (6.50305 -0.598318 2.6692)             (9.79653 0.0763471 -0.147932)             (6.25898 -1.63427 0.892412)             (9.77379 0.0738955 -0.104502)
        0.098             (6.48617 -0.729878 2.64955)             (9.90287 0.0792292 -0.150456)             (6.43278 -1.59881 0.985318)             (9.87943 0.0766492 -0.106094)
          0.1             (6.56266 -0.930598 2.48936)             (9.97706 0.0819354 -0.153219)             (6.60347 -1.63536 0.898685)             (9.95289 0.079228 -0.107843)
        0.102             (6.70273 -1.12133 2.29263)             (9.99322 0.0843724 -0.156733)             (6.78287 -1.75872 0.778997)             (9.96823 0.081532 -0.110117)
        0.104             (6.89966 -1.21769 2.08134)             (9.97538 0.086809 -0.161956)             (6.96402 -1.88915 0.712308)             (9.94944 0.0838217 -0.113612)
        0.106             (7.13447 -1.23742 1.85083)             (9.95863 0.0897932 -0.169125)             (7.13458 -1.93338 0.694001)             (9.93153 0.0866461 -0.1185)
        0.108             (7.35682 -1.24261 1.56306)             (9.94804 0.0936604 -0.177092)             (7.28534 -1.88351 0.665902)             (9.91968 0.0903462 -0.123951)
         0.11             (7.50037 -1.25195 1.23856)             (9.92476 0.098208 -0.183933)             (7.44096 -1.82444 0.616667)             (9.89522 0.0947245 -0.128567)
        0.112             (7.54008 -1.25893 0.93081)             (9.88193 0.102837 -0.188624)             (7.60277 -1.86151 0.592727)             (9.85138 0.0991829 -0.131606)
        0.114             (7.53745 -1.19267 0.648604)             (9.8353 0.106993 -0.192242)             (7.72532 -2.03678 0.587193)             (9.8038 0.103163 -0.133849)
        0.116             (7.55084 -1.03926 0.384231)             (9.796 0.110556 -0.196732)             (7.73568 -2.2696 0.566095)             (9.76346 0.106543 -0.136706)
        0.118             (7.57156 -0.881363 0.102582)             (9.74659 0.113967 -0.203044)             (7.57794 -2.40505 0.51269)             (9.71281 0.109767 -0.140867)
         0.12             (7.52441 -0.812003 -0.127175)             (9.66257 0.117805 -0.21048)             (7.30939 -2.38915 0.474629)             (9.62743 0.113414 -0.145822)
        0.122             (7.38285 -0.824901 -0.240889)             (9.55793 0.122394 -0.217692)             (7.04091 -2.25252 0.486471)             (9.52144 0.1178 -0.15059)
        0.124             (7.22081 -0.848576 -0.264603)             (9.49261 0.127476 -0.224014)             (6.86455 -2.04343 0.5038)             (9.45484 0.122666 -0.154686)
        0.126             (7.12673 -0.795886 -0.242417)             (9.51969 0.132518 -0.229735)             (6.81244 -1.83519 0.511233)             (9.48071 0.127479 -0.158315)
        0.128             (7.11941 -0.675679 -0.209001)             (9.62481 0.137153 -0.235575)             (6.86264 -1.69651 0.562767)             (9.58459 0.131876 -0.161995)
         0.13             (7.143 -0.59388 -0.180041)             (9.72859 0.141554 -0.241874)             (6.94694 -1.63141 0.653477)             (9.68706 0.136034 -0.165971)
        0.132             (7.10803 -0.620299 -0.167577)             (9.75398 0.146246 -0.2487)             (7.00882 -1.62215 0.730606)             (9.7111 0.140478 -0.170293)
        0.134             (6.98882 -0.782401 -0.148785)             (9.69176 0.151616 -0.256005)             (7.05088 -1.66424 0.708495)             (9.64745 0.145592 -0.174925)
        0.136             (6.84327 -0.976326 -0.140166)             (9.59913 0.157439 -0.263582)             (7.09588 -1.74725 0.556123)             (9.55337 0.151149 -0.179722)
        0.138             (6.72574 -1.05002 -0.112675)             (9.54016 0.16304 -0.270982)             (7.16001 -1.81231 0.373605)             (9.49295 0.156473 -0.184356)
         0.14             (6.64489 -0.918885 -0.0566397)             (9.5313 0.167786 -0.277829)             (7.22066 -1.80848 0.218998)             (9.48265 0.160936 -0.188552)
        0.142             (6.56224 -0.574827 0.0136561)             (9.54047 0.171679 -0.284383)             (7.22009 -1.68628 0.145848)             (9.49039 0.164538 -0.192494)
        0.144             (6.44018 -0.176314 0.0679552)             (9.52864 0.175336 -0.291615)             (7.12726 -1.54567 0.115325)             (9.47709 0.167896 -0.196875)
        0.146             (6.27531 0.11475 0.0705396)             (9.4862 0.179404 -0.300535)             (6.95499 -1.53331 0.0692112)             (9.43305 0.171657 -0.202422)
        0.148             (6.08774 0.193352 0.0786089)             (9.43319 0.183842 -0.311352)             (6.76048 -1.62759 0.0919307)             (9.37832 0.17578 -0.20928)
         0.15             (5.94801 0.100508 0.163608)             (9.39395 0.188311 -0.323432)             (6.59762 -1.73768 0.187171)             (9.33729 0.179925 -0.216991)
        0.152             (5.89516 -0.044901 0.238182)             (9.37676 0.192461 -0.335626)             (6.4488 -1.74849 0.276341)             (9.31828 0.183746 -0.224725)
        0.154             (5.93731 -0.165372 0.230514)             (9.37448 0.196461 -0.346939)             (6.31482 -1.69466 0.253135)             (9.31426 0.187423 -0.231757)
        0.156             (6.0056 -0.299373 0.117937)             (9.37803 0.200718 -0.357165)             (6.1994 -1.70454 0.113494)             (9.31618 0.191361 -0.237926)
        0.158             (5.99021 -0.462807 0.00332401)             (9.38463 0.205354 -0.3669)             (6.1147 -1.79803 -0.00565029)             (9.32126 0.195676 -0.243652)
         0.16             (5.85842 -0.602578 -0.0312004)             (9.39132 0.209925 -0.377539)             (6.09382 -1.82845 -0.0285448)             (9.32641 0.199912 -0.249938)
        0.162             (5.65516 -0.650575 0.0360873)             (9.3865 0.21393 -0.390329)             (6.16306 -1.69541 -0.00370505)             (9.31992 0.203561 -0.257687)
        0.164             (5.47397 -0.621819 0.170501)             (9.35362 0.217499 -0.405353)             (6.31734 -1.39437 -0.0713774)             (9.2852 0.206767 -0.266962)
        0.166             (5.3802 -0.590217 0.282468)             (9.28883 0.221006 -0.421199)             (6.52933 -1.09172 -0.316483)             (9.21854 0.209913 -0.276735)
        0.168             (5.34406 -0.576619 0.411655)             (9.21377 0.224681 -0.435693)             (6.77484 -0.881989 -0.551041)             (9.14182 0.213236 -0.285418)
         0.17             (5.29194 -0.534128 0.619729)             (9.16212 0.228443 -0.448102)             (7.0227 -0.672515 -0.6155)             (9.08882 0.216644 -0.292466)
        0.172             (5.18023 -0.491236 0.899331)             (9.14974 0.232006 -0.460006)             (7.25599 -0.359617 -0.561433)             (9.07527 0.219844 -0.299008)
        0.174             (5.04545 -0.513799 1.13636)             (9.16001 0.235315 -0.473826)             (7.48974 0.00187956 -0.579072)             (9.08434 0.222779 -0.306789)
        0.176             (4.96641 -0.653685 1.223)             (9.16237 0.238466 -0.490588)             (7.74354 0.25676 -0.836746)             (9.08539 0.225547 -0.316536)
        0.178             (4.97772 -0.854534 1.1226)             (9.14563 0.241266 -0.509141)             (8.02434 0.313178 -1.21239)             (9.06733 0.227951 -0.327411)
         0.18             (5.06251 -1.00779 0.93577)             (9.12789 0.243487 -0.527307)             (8.30566 0.262024 -1.45605)             (9.04849 0.229756 -0.337819)
        0.182             (5.1824 -0.99544 0.784033)             (9.12974 0.24529 -0.544304)             (8.55262 0.299766 -1.47185)             (9.04954 0.2311 -0.347179)
        0.184             (5.2728 -0.867016 0.727031)             (9.14604 0.247239 -0.561132)             (8.71896 0.487495 -1.34958)             (9.06526 0.232545 -0.356199)
        0.186             (5.29906 -0.754566 0.717977)             (9.15199 0.249809 -0.579427)             (8.79112 0.733672 -1.22007)             (9.07079 0.234548 -0.366031)
        0.188             (5.27331 -0.738091 0.686181)             (9.13858 0.252847 -0.599537)             (8.79848 0.917701 -1.104)             (9.05712 0.236952 -0.376907)
         0.19             (5.24626 -0.795875 0.633106)             (9.12803 0.255665 -0.62051)             (8.80251 1.0431 -0.926492)             (9.0466 0.239058 -0.388118)
        0.192             (5.27315 -0.783458 0.598597)             (9.14531 0.257903 -0.641331)             (8.84961 1.23784 -0.669184)             (9.06429 0.240476 -0.398903)
        0.194             (5.35461 -0.621629 0.569209)             (9.17911 0.260094 -0.661966)             (8.91824 1.62279 -0.402606)             (9.09891 0.241704 -0.409223)
        0.196             (5.45304 -0.406429 0.508183)             (9.18626 0.262835 -0.683186)             (8.97699 2.11424 -0.218738)             (9.10726 0.243296 -0.419604)
        0.198             (5.52629 -0.223392 0.375164)             (9.1425 0.266028 -0.705385)             (9.00433 2.55203 -0.110673)             (9.06511 0.24512 -0.430314)
          0.2             (5.55745 -0.143502 0.163902)             (9.07894 0.268939 -0.728419)             (9.00948 2.83327 0.0162427)             (9.00363 0.246425 -0.441237)
        0.202             (5.56847 -0.112903 -0.0826692)             (9.05533 0.271057 -0.752107)             (9.02553 2.99453 0.170955)             (8.98261 0.246647 -0.452209)
        0.204             (5.60286 -0.0823432 -0.309538)             (9.09386 0.272785 -0.776769)             (9.04887 3.11869 0.226909)             (9.02426 0.246125 -0.463426)
        0.206             (5.67968 -0.0681128 -0.486732)             (9.15217 0.274878 -0.802507)             (9.04898 3.20057 0.11774)             (9.08626 0.245572 -0.474953)
        0.208             (5.795 -0.0897511 -0.653968)             (9.16859 0.277706 -0.82881)             (8.99443 3.17016 -0.11269)             (9.10689 0.245203 -0.486358)
         0.21             (5.94467 -0.112925 -0.81304)             (9.12995 0.280929 -0.854444)             (8.91037 2.95662 -0.360448)             (9.07314 0.244658 -0.496759)
        0.212             (6.09212 -0.0707926 -0.972502)             (9.08354 0.284559 -0.879043)             (8.82756 2.53503 -0.563103)             (9.03234 0.243884 -0.50589)
        0.214             (6.18509 0.0073714 -1.14423)             (9.08062 0.289152 -0.903578)             (8.7385 1.96248 -0.724635)             (9.03564 0.243328 -0.514447)
        0.216             (6.21839 0.0326099 -1.3215)             (9.11869 0.295085 -0.929112)             (8.64259 1.34075 -0.909096)             (9.08043 0.243275 -0.523222)
        0.218             (6.24441 -0.0520894 -1.44947)             (9.14684 0.302179 -0.955264)             (8.54692 0.760466 -1.10656)             (9.11577 0.243466 -0.532092)
         0.22             (6.34805 -0.204809 -1.46682)             (9.12517 0.30948 -0.981446)             (8.51856 0.27206 -1.26096)             (9.1017 0.242776 -0.540194)
        0.222             (6.58177 -0.258455 -1.37367)             (9.06678 0.316605 -1.00604)             (8.60499 -0.0430975 -1.3648)             (9.05127 0.240827 -0.546564)
        0.224             (6.88874 -0.175444 -1.23351)             (9.01763 0.324169 -1.02891)             (8.79139 -0.250054 -1.45061)             (9.01029 0.2382 -0.551218)
        0.226             (7.15608 -0.00833341 -1.04363)             (9.00474 0.333095 -1.05074)             (9.01251 -0.42582 -1.50898)             (9.00555 0.235738 -0.554701)
        0.228             (7.32157 0.068345 -0.809543)             (9.01163 0.343688 -1.07156)             (9.18286 -0.654754 -1.48252)             (9.02029 0.233699 -0.557249)
         0.23             (7.42325 0.0237832 -0.524268)             (9.00566 0.355008 -1.09122)             (9.25631 -0.911617 -1.31776)             (9.02164 0.231313 -0.558585)
        0.232             (7.52501 -0.0500446 -0.215347)             (8.97661 0.366585 -1.10901)             (9.22694 -1.14901 -1.06967)             (8.99924 0.228129 -0.558332)
        0.234             (7.64155 -0.000874575 0.0652846)             (8.94136 0.378408 -1.12499)             (9.11806 -1.29471 -0.91459)             (8.96956 0.22426 -0.556729)
        0.236             (7.72617 0.212549 0.245533)             (8.91469 0.39064 -1.13999)             (8.92566 -1.37513 -0.931993)             (8.94687 0.220051 -0.554578)
        0.238             (7.77754 0.494142 0.39624)             (8.88911 0.402879 -1.15389)             (8.70893 -1.39941 -1.13704)             (8.92333 0.215404 -0.552009)
         0.24             (7.86341 0.719597 0.639056)             (8.84966 0.41389 -1.16538)             (8.55763 -1.39977 -1.37792)             (8.88372 0.209463 -0.54832)
        0.242             (8.02605 0.949651 1.0285)             (8.80274 0.422711 -1.17348)             (8.52312 -1.38109 -1.50896)             (8.83438 0.201741 -0.542951)
        0.244             (8.22017 1.23236 1.47805)             (8.78011 0.429312 -1.17789)             (8.55608 -1.37078 -1.55346)             (8.80669 0.192599 -0.535902)
        0.246             (8.28376 1.59233 1.78097)             (8.80543 0.434056 -1.17936)             (8.51476 -1.40782 -1.57128)             (8.82402 0.182776 -0.527897)
        0.248             (8.19558 1.92208 1.84008)             (8.86228 0.436814 -1.17798)             (8.34376 -1.51259 -1.61393)             (8.86978 0.172602 -0.51926)
         0.25             (8.04468 2.17622 1.74267)             (8.90195 0.436606 -1.17298)             (8.10827 -1.62577 -1.68246)             (8.89513 0.161724 -0.509738)
        0.252             (7.93369 2.27064 1.74718)             (8.88797 0.43241 -1.16448)             (7.97893 -1.69685 -1.71033)             (8.8638 0.149721 -0.499372)
        0.254             (7.86944 2.21034 1.93434)             (8.83262 0.42412 -1.15318)             (8.04332 -1.69485 -1.69847)             (8.7881 0.136756 -0.488716)
        0.256             (7.79769 2.06644 2.14903)             (8.78415 0.411874 -1.14061)             (8.24998 -1.67258 -1.75436)             (8.71626 0.123211 -0.478887)
        0.258             (7.6912 1.88913 2.18921)             (8.77916 0.394946 -1.12724)             (8.41305 -1.71416 -1.95869)             (8.68499 0.108909 -0.47028)
         0.26             (7.60443 1.7218 2.02259)             (8.80933 0.372755 -1.11179)             (8.3879 -1.77218 -2.2677)             (8.68647 0.0934554 -0.462047)
        0.262             (7.65238 1.61724 1.84821)             (8.83515 0.345257 -1.09331)             (8.20982 -1.70838 -2.58161)             (8.68186 0.0769046 -0.453304)
        0.264             (7.88991 1.62192 1.84662)             (8.83237 0.312448 -1.07224)             (8.00712 -1.45898 -2.76706)             (8.64722 0.059027 -0.443971)
        0.266             (8.29424 1.74878 1.9876)             (8.81729 0.274648 -1.04996)             (7.84522 -1.06294 -2.85048)             (8.5991 0.0399056 -0.434834)
        0.268             (8.73022 1.96755 2.06848)             (8.82443 0.232023 -1.02755)             (7.70522 -0.64958 -2.9339)             (8.57221 0.0197391 -0.426354)
         0.27             (9.08107 2.14548 1.93659)             (8.86273 0.184944 -1.00472)             (7.54311 -0.330573 -3.10387)             (8.57571 -0.00133282 -0.418056)
        0.272             (9.34739 2.11465 1.65158)             (8.90069 0.133681 -0.980405)             (7.35564 -0.151342 -3.33891)             (8.57942 -0.0239136 -0.40889)
        0.274             (9.56095 1.87021 1.41783)             (8.8971 0.0787762 -0.954933)             (7.17578 -0.0457166 -3.58692)             (8.54196 -0.0478869 -0.39874)
        0.276             (9.77049 1.49243 1.42404)             (8.84404 0.020839 -0.929043)             (7.09107 0.0272885 -3.70987)             (8.4559 -0.0727215 -0.388158)
        0.278             (9.97244 1.04875 1.67707)             (8.77854 -0.0400889 -0.903293)             (7.18183 0.100037 -3.65454)             (8.35825 -0.0990263 -0.377237)
         0.28             (10.1354 0.615342 1.96323)             (8.74745 -0.10358 -0.877976)             (7.45808 0.157873 -3.46696)             (8.29475 -0.126752 -0.365755)
        0.282             (10.2168 0.241834 2.11196)             (8.76 -0.168912 -0.852159)             (7.85478 0.210473 -3.18775)             (8.2753 -0.155951 -0.353044)
        0.284             (10.181 -0.018889 2.05687)             (8.78383 -0.234778 -0.82593)             (8.23711 0.220526 -2.82245)             (8.2678 -0.186365 -0.338624)
        0.286             (10.0517 -0.132538 1.82472)             (8.77868 -0.301721 -0.799675)             (8.43441 0.167167 -2.42359)             (8.23201 -0.217969 -0.323693)
        0.288             (9.92027 -0.119678 1.52196)             (8.73715 -0.369204 -0.774244)             (8.39659 0.0175912 -2.09029)             (8.16067 -0.251026 -0.308241)
         0.29             (9.85232 -0.0138919 1.24937)             (8.69206 -0.435952 -0.749659)             (8.25329 -0.122189 -1.84799)             (8.08688 -0.285507 -0.292646)
        0.292             (9.82595 0.124749 1.10999)             (8.68583 -0.499404 -0.725028)             (8.18761 -0.12546 -1.64037)             (8.05273 -0.320717 -0.277593)
        0.294             (9.75887 0.238675 1.13917)             (8.73201 -0.560313 -0.699243)             (8.33234 0.0747006 -1.36106)             (8.07222 -0.356849 -0.261581)
        0.296             (9.60106 0.323201 1.24735)             (8.8048 -0.618488 -0.672391)             (8.67133 0.398841 -0.986362)             (8.1198 -0.393596 -0.244131)
        0.298             (9.36368 0.407319 1.29525)             (8.86234 -0.672057 -0.643677)             (9.02669 0.672344 -0.602077)             (8.15439 -0.430384 -0.225326)
          0.3             (9.13797 0.545473 1.20313)             (8.88113 -0.721763 -0.613952)             (9.20296 0.747946 -0.319386)             (8.15217 -0.467725 -0.20547)
        0.302             (8.98412 0.764511 0.98706)             (8.87148 -0.767792 -0.584506)             (9.17094 0.664514 -0.242209)             (8.12409 -0.505516 -0.185351)
        0.304             (8.8988 0.989278 0.758796)             (8.86325 -0.809713 -0.556799)             (9.06837 0.575296 -0.277837)             (8.10128 -0.543316 -0.166285)
        0.306             (8.81726 1.11225 0.60344)             (8.8814 -0.847662 -0.531726)             (9.03548 0.673887 -0.308407)             (8.10855 -0.580705 -0.148649)
        0.308             (8.70596 1.07836 0.491108)             (8.92871 -0.881017 -0.508748)             (9.11581 0.869132 -0.256425)             (8.14907 -0.616828 -0.132021)
         0.31             (8.61285 0.959883 0.388902)             (8.98993 -0.909833 -0.486584)             (9.26891 0.966557 -0.124612)             (8.20826 -0.651561 -0.115555)
        0.312             (8.55954 0.868329 0.334969)             (9.04297 -0.934344 -0.464995)             (9.49333 0.849215 0.026055)             (8.26442 -0.684503 -0.0990097)
        0.314             (8.47601 0.86782 0.391658)             (9.067 -0.955252 -0.444328)             (9.83117 0.57793 0.130134)             (8.29672 -0.715731 -0.0826962)
        0.316             (8.27407 0.859947 0.470724)             (9.04623 -0.972034 -0.425549)             (10.243 0.273652 0.160913)             (8.28968 -0.744882 -0.0674815)
        0.318             (7.96106 0.775953 0.437837)             (8.97988 -0.985055 -0.408856)             (10.5836 0.063861 0.148081)             (8.24248 -0.770382 -0.0534087)
         0.32             (7.63788 0.661181 0.19895)             (8.89221 -0.994657 -0.393323)             (10.6735 -0.0234287 0.103805)             (8.17904 -0.792271 -0.0403694)
        0.322             (7.40704 0.658211 -0.143446)             (8.82855 -1.00203 -0.377803)             (10.5272 -0.0152361 0.0384119)             (8.14482 -0.811854 -0.0278647)
        0.324             (7.28305 0.849583 -0.413573)             (8.82641 -1.00841 -0.36264)             (10.2656 0.0795701 0.0213755)             (8.1771 -0.830056 -0.0163505)
        0.326             (7.19476 1.11336 -0.461779)             (8.88139 -1.01447 -0.348499)             (10.034 0.178045 0.151996)             (8.27105 -0.846631 -0.00666938)
        0.328             (7.05705 1.29444 -0.298895)             (8.94501 -1.01861 -0.33592)             (9.89888 0.195446 0.331863)             (8.37742 -0.860269 0.000572989)
         0.33             (6.84855 1.32439 -0.0694284)             (8.96995 -1.02136 -0.324124)             (9.80666 0.098917 0.450604)             (8.44819 -0.870794 0.00544761)
        0.332             (6.67144 1.28469 0.146977)             (8.95815 -1.02451 -0.312254)             (9.7631 -0.0669155 0.39912)             (8.48543 -0.878815 0.00825494)
        0.334             (6.60625 1.27945 0.375996)             (8.9564 -1.02991 -0.298827)             (9.88337 -0.24218 0.21207)             (8.53524 -0.885864 0.00966457)
        0.336             (6.64465 1.31024 0.606177)             (8.99739 -1.03851 -0.283096)             (10.2122 -0.390433 0.0638453)             (8.62935 -0.892662 0.0101277)