# vtk DataFile Version 2.0
sampleSurface
ASCII
DATASET POLYDATA
POINTS 680 double
-0.685 -0.113588 0
-0.685 0.114412 0
-0.685 -0.113588 0.03
-0.685 0.114412 0.03
-0.685 -0.143588 0
-0.685 0.144412 0
-0.685 -0.143588 0.03
-0.685 0.144412 0.03
-0.715 -0.113588 0
-0.715 0.114412 0
-0.715 -0.113588 0.03
-0.715 0.114412 0.03
-0.715 -0.143588 0
-0.715 0.144412 0
-0.715 -0.143588 0.03
-0.715 0.144412 0.03
-0.757222 -0.015 0
-0.757222 0.015 0
-0.757222 0.015 0.03
-0.757222 -0.015 0.03
-0.685 -0.371588 0
-0.685 0.372412 0
-0.685 -0.371588 0.03
-0.685 0.372412 0.03
-0.787222 -0.015 0
-0.787222 0.015 0
-0.787222 0.015 0.03
-0.787222 -0.015 0.03
-0.685 -0.401588 0
-0.685 0.402412 0
-0.685 -0.401588 0.03
-0.685 0.402412 0.03
-0.757222 -0.243 0
-0.757222 0.243 0
-0.757222 -0.243 0.03
-0.757222 0.243 0.03
-0.757222 -0.273 0
-0.757222 0.273 0
-0.757222 -0.273 0.03
-0.757222 0.273 0.03
-0.715 -0.371588 0
-0.715 0.372412 0
-0.715 -0.371588 0.03
-0.715 0.372412 0.03
-0.715 -0.401588 0
-0.715 0.402412 0
-0.715 -0.401588 0.03
-0.715 0.402412 0.03
-0.787222 -0.243 0
-0.787222 0.243 0
-0.787222 -0.243 0.03
-0.787222 0.243 0.03
-0.787222 -0.273 0
-0.787222 0.273 0
-0.787222 -0.273 0.03
-0.787222 0.273 0.03
-0.829444 -0.113588 0
-0.829444 0.114412 0
-0.829444 -0.113588 0.03
-0.829444 0.114412 0.03
-0.829444 -0.143588 0
-0.829444 0.144412 0
-0.829444 -0.143588 0.03
-0.829444 0.144412 0.03
-0.859444 -0.113588 0
-0.859444 0.114412 0
-0.859444 -0.113588 0.03
-0.859444 0.114412 0.03
-0.859444 -0.143588 0
-0.859444 0.144412 0
-0.859444 -0.143588 0.03
-0.859444 0.144412 0.03
-0.901667 -0.015 0
-0.901667 0.015 0
-0.901667 0.015 0.03
-0.901667 -0.015 0.03
-0.757222 0.501 0
-0.757222 -0.501 0
-0.757222 0.501 0.03
-0.757222 -0.501 0.03
-0.829444 -0.371588 0
-0.829444 0.372412 0
-0.829444 -0.371588 0.03
-0.829444 0.372412 0.03
-0.829444 -0.401588 0
-0.829444 0.402412 0
-0.829444 -0.401588 0.03
-0.829444 0.402412 0.03
-0.757222 0.531 0
-0.757222 -0.531 0
-0.757222 0.531 0.03
-0.757222 -0.531 0.03
-0.685 -0.629588 0
-0.685 -0.629588 0.03
-0.685 0.630412 0
-0.685 0.630412 0.03
-0.931667 -0.015 0
-0.931667 0.015 0
-0.931667 0.015 0.03
-0.931667 -0.015 0.03
-0.787222 0.501 0
-0.787222 -0.501 0
-0.787222 0.501 0.03
-0.787222 -0.501 0.03
-0.901667 -0.243 0
-0.901667 0.243 0
-0.901667 -0.243 0.03
-0.901667 0.243 0.03
-0.859444 -0.371588 0
-0.859444 0.372412 0
-0.859444 -0.371588 0.03
-0.859444 0.372412 0.03
-0.901667 -0.273 0
-0.901667 0.273 0
-0.901667 -0.273 0.03
-0.901667 0.273 0.03
-0.859444 -0.401588 0
-0.859444 0.402412 0
-0.859444 -0.401588 0.03
-0.859444 0.402412 0.03
-0.787222 0.531 0
-0.787222 -0.531 0
-0.787222 0.531 0.03
-0.787222 -0.531 0.03
-0.685 -0.659588 0
-0.685 -0.659588 0.03
-0.685 0.660412 0
-0.685 0.660412 0.03
-0.715 -0.629588 0
-0.715 -0.629588 0.03
-0.715 0.630412 0
-0.715 0.630412 0.03
-0.931667 -0.243 0
-0.931667 0.243 0
-0.931667 -0.243 0.03
-0.931667 0.243 0.03
-0.931667 -0.273 0
-0.931667 0.273 0
-0.931667 -0.273 0.03
-0.931667 0.273 0.03
-0.715 -0.659588 0
-0.715 -0.659588 0.03
-0.715 0.660412 0
-0.715 0.660412 0.03
-0.973889 -0.113588 0
-0.973889 0.114412 0
-0.973889 -0.113588 0.03
-0.973889 0.114412 0.03
-0.973889 -0.143588 0
-0.973889 0.144412 0
-0.973889 -0.143588 0.03
-0.973889 0.144412 0.03
-1.00389 -0.113588 0
-1.00389 0.114412 0
-1.00389 -0.113588 0.03
-1.00389 0.114412 0.03
-1.00389 -0.143588 0
-1.00389 0.144412 0
-1.00389 -0.143588 0.03
-1.00389 0.144412 0.03
-0.901667 -0.501 0
-0.901667 0.501 0
-0.901667 -0.501 0.03
-0.901667 0.501 0.03
-0.829444 -0.629588 0
-0.829444 -0.629588 0.03
-0.829444 0.630412 0
-0.829444 0.630412 0.03
-0.973889 -0.371588 0
-0.973889 0.372412 0
-0.973889 -0.371588 0.03
-0.973889 0.372412 0.03
-1.04611 -0.015 0
-1.04611 0.015 0
-0.901667 -0.531 0
-0.901667 0.531 0
-1.04611 0.015 0.03
-1.04611 -0.015 0.03
-0.901667 -0.531 0.03
-0.901667 0.531 0.03
-0.973889 -0.401588 0
-0.973889 0.402412 0
-0.973889 -0.401588 0.03
-0.973889 0.402412 0.03
-0.931667 -0.501 0
-0.931667 0.501 0
-0.931667 -0.501 0.03
-0.931667 0.501 0.03
-0.829444 -0.659588 0
-0.829444 -0.659588 0.03
-0.829444 0.660412 0
-0.829444 0.660412 0.03
-0.859444 -0.629588 0
-0.859444 -0.629588 0.03
-0.859444 0.630412 0
-0.859444 0.630412 0.03
-1.00389 -0.371588 0
-1.00389 0.372412 0
-1.00389 -0.371588 0.03
-1.00389 0.372412 0.03
-0.757222 -0.759 0
-0.757222 0.759 0
-0.931667 -0.531 0
-0.931667 0.531 0
-0.757222 -0.759 0.03
-0.757222 0.759 0.03
-0.931667 -0.531 0.03
-0.931667 0.531 0.03
-1.04611 0.243 0
-1.04611 -0.243 0
-1.04611 0.243 0.03
-1.04611 -0.243 0.03
-1.07611 -0.015 0
-1.07611 0.015 0
-1.07611 0.015 0.03
-1.07611 -0.015 0.03
-1.04611 0.273 0
-1.04611 -0.273 0
-1.00389 -0.401588 0
-1.00389 0.402412 0
-1.04611 0.273 0.03
-1.04611 -0.273 0.03
-1.00389 -0.401588 0.03
-1.00389 0.402412 0.03
-0.859444 -0.659588 0
-0.859444 -0.659588 0.03
-0.859444 0.660412 0
-0.859444 0.660412 0.03
-0.787222 -0.759 0
-0.787222 0.759 0
-0.757222 -0.789 0
-0.757222 0.789 0
-0.787222 -0.759 0.03
-0.787222 0.759 0.03
-0.757222 -0.789 0.03
-0.757222 0.789 0.03
-1.07611 0.243 0
-1.07611 -0.243 0
-1.07611 0.243 0.03
-1.07611 -0.243 0.03
-1.07611 0.273 0
-1.07611 -0.273 0
-1.07611 0.273 0.03
-1.07611 -0.273 0.03
-0.787222 -0.789 0
-0.787222 0.789 0
-0.787222 -0.789 0.03
-0.787222 0.789 0.03
-0.685 -0.887588 0
-0.685 -0.887588 0.03
-0.685 0.888412 0
-0.685 0.888412 0.03
-1.11833 -0.113588 0
-1.11833 0.114412 0
-1.11833 -0.113588 0.03
-1.11833 0.114412 0.03
-1.11833 -0.143588 0
-1.11833 0.144412 0
-1.11833 -0.143588 0.03
-1.11833 0.144412 0.03
-0.715 -0.887588 0
-0.715 -0.887588 0.03
-0.715 0.888412 0
-0.715 0.888412 0.03
-0.685 -0.917588 0
-0.685 -0.917588 0.03
-0.685 0.918412 0
-0.685 0.918412 0.03
-1.14833 -0.113588 0
-1.14833 0.114412 0
-1.14833 -0.113588 0.03
-1.14833 0.114412 0.03
-1.14833 -0.143588 0
-1.14833 0.144412 0
-1.14833 -0.143588 0.03
-1.14833 0.144412 0.03
-0.973889 -0.629588 0
-1.04611 -0.501 0
-1.04611 0.501 0
-0.973889 -0.629588 0.03
-0.973889 0.630412 0
-1.04611 -0.501 0.03
-1.04611 0.501 0.03
-0.973889 0.630412 0.03
-0.715 -0.917588 0
-0.715 -0.917588 0.03
-0.715 0.918412 0
-0.715 0.918412 0.03
-1.04611 -0.531 0
-1.04611 0.531 0
-1.04611 -0.531 0.03
-1.04611 0.531 0.03
-0.973889 -0.659588 0
-0.973889 -0.659588 0.03
-0.973889 0.660412 0
-0.973889 0.660412 0.03
-1.11833 -0.371588 0
-0.901667 -0.759 0
-0.901667 0.759 0
-1.11833 0.372412 0
-1.11833 -0.371588 0.03
-0.901667 -0.759 0.03
-0.901667 0.759 0.03
-1.11833 0.372412 0.03
-1.00389 -0.629588 0
-1.00389 -0.629588 0.03
-1.00389 0.630412 0
-1.00389 0.630412 0.03
-1.07611 -0.501 0
-1.07611 0.501 0
-1.07611 -0.501 0.03
-1.07611 0.501 0.03
-1.11833 -0.401588 0
-1.11833 0.402412 0
-1.11833 -0.401588 0.03
-1.11833 0.402412 0.03
-1.19056 -0.015 0
-1.19056 0.015 0
-1.19056 0.015 0.03
-1.19056 -0.015 0.03
-0.901667 -0.789 0
-0.901667 0.789 0
-0.901667 -0.789 0.03
-0.901667 0.789 0.03
-1.07611 -0.531 0
-1.07611 0.531 0
-1.07611 -0.531 0.03
-1.07611 0.531 0.03
-1.00389 -0.659588 0
-1.00389 -0.659588 0.03
-1.00389 0.660412 0
-0.931667 -0.759 0
-0.931667 0.759 0
-1.00389 0.660412 0.03
-0.931667 -0.759 0.03
-0.931667 0.759 0.03
-1.14833 -0.371588 0
-1.14833 0.372412 0
-1.14833 -0.371588 0.03
-1.14833 0.372412 0.03
-0.829444 -0.887588 0
-1.19056 -0.243 0
-1.19056 0.243 0
-0.829444 -0.887588 0.03
-0.829444 0.888412 0
-1.19056 -0.243 0.03
-1.19056 0.243 0.03
-0.829444 0.888412 0.03
-1.14833 -0.401588 0
-1.14833 0.402412 0
-1.14833 -0.401588 0.03
-1.14833 0.402412 0.03
-1.22056 -0.015 0
-1.22056 0.015 0
-0.931667 -0.789 0
-0.931667 0.789 0
-1.22056 0.015 0.03
-1.22056 -0.015 0.03
-0.931667 -0.789 0.03
-0.931667 0.789 0.03
-1.19056 -0.273 0
-1.19056 0.273 0
-1.19056 -0.273 0.03
-1.19056 0.273 0.03
-0.859444 -0.887588 0
-0.859444 -0.887588 0.03
-0.859444 0.888412 0
-0.859444 0.888412 0.03
-0.829444 -0.917588 0
-0.829444 -0.917588 0.03
-0.829444 0.918412 0
-0.829444 0.918412 0.03
-1.22056 -0.243 0
-1.22056 0.243 0
-1.22056 -0.243 0.03
-1.22056 0.243 0.03
-1.22056 -0.273 0
-1.22056 0.273 0
-1.22056 -0.273 0.03
-1.22056 0.273 0.03
-0.859444 -0.917588 0
-0.859444 -0.917588 0.03
-0.859444 0.918412 0
-0.859444 0.918412 0.03
-1.26278 -0.113588 0
-0.757222 1.017 0
-0.757222 -1.017 0
-1.26278 0.114412 0
-1.26278 -0.113588 0.03
-0.757222 1.017 0.03
-0.757222 -1.017 0.03
-1.26278 0.114412 0.03
-1.26278 -0.143588 0
-1.26278 0.144412 0
-1.26278 -0.143588 0.03
-1.26278 0.144412 0.03
-1.11833 -0.629588 0
-1.11833 -0.629588 0.03
-1.11833 0.630412 0
-1.11833 0.630412 0.03
-0.787222 1.017 0
-0.787222 -1.017 0
-0.787222 1.017 0.03
-0.787222 -1.017 0.03
-1.19056 0.501 0
-1.19056 -0.501 0
-1.19056 0.501 0.03
-1.19056 -0.501 0.03
-0.757222 1.047 0
-0.757222 -1.047 0
-1.04611 0.759 0
-1.04611 -0.759 0
-0.757222 1.047 0.03
-0.757222 -1.047 0.03
-1.04611 0.759 0.03
-1.04611 -0.759 0.03
-1.29278 -0.113588 0
-1.29278 0.114412 0
-1.29278 -0.113588 0.03
-1.29278 0.114412 0.03
-1.11833 -0.659588 0
-1.11833 -0.659588 0.03
-1.11833 0.660412 0
-1.11833 0.660412 0.03
-1.29278 -0.143588 0
-1.29278 0.144412 0
-1.29278 -0.143588 0.03
-1.29278 0.144412 0.03
-1.19056 0.531 0
-1.19056 -0.531 0
-1.19056 0.531 0.03
-1.19056 -0.531 0.03
-1.14833 -0.629588 0
-0.787222 1.047 0
-0.787222 -1.047 0
-1.14833 -0.629588 0.03
-1.14833 0.630412 0
-0.787222 1.047 0.03
-0.787222 -1.047 0.03
-1.04611 0.789 0
-1.04611 -0.789 0
-1.14833 0.630412 0.03
-1.04611 0.789 0.03
-1.04611 -0.789 0.03
-1.26278 -0.371588 0
-1.26278 0.372412 0
-1.26278 -0.371588 0.03
-1.07611 0.759 0
-1.07611 -0.759 0
-1.26278 0.372412 0.03
-1.07611 0.759 0.03
-1.07611 -0.759 0.03
-0.973889 -0.887588 0
-0.973889 -0.887588 0.03
-0.973889 0.888412 0
-0.973889 0.888412 0.03
-1.22056 0.501 0
-1.22056 -0.501 0
-1.22056 0.501 0.03
-1.22056 -0.501 0.03
-1.14833 -0.659588 0
-1.14833 -0.659588 0.03
-1.14833 0.660412 0
-1.14833 0.660412 0.03
-1.26278 -0.401588 0
-1.26278 0.402412 0
-1.26278 -0.401588 0.03
-1.26278 0.402412 0.03
-1.22056 0.531 0
-1.22056 -0.531 0
-1.22056 0.531 0.03
-1.22056 -0.531 0.03
-1.07611 0.789 0
-1.07611 -0.789 0
-1.07611 0.789 0.03
-1.07611 -0.789 0.03
-1.335 -0.015 0
[...]
CELL_DATA 1020
FIELD attributes 1
zone 1 1020 float
0 0 0 0 0 0 0 0 0 0
0 0 1 1 1 1 1 1 1 1
1 1 1 1 2 2 2 2 2 2
2 2 2 2 2 2 3 3 3 3
3 3 3 3 3 3 3 3 4 4
4 4 4 4 4 4 4 4 4 4
5 5 5 5 5 5 5 5 5 5
5 5 6 6 6 6 6 6 6 6
6 6 6 6 7 7 7 7 7 7
7 7 7 7 7 7 8 8 8 8
8 8 8 8 8 8 8 8 9 9
9 9 9 9 9 9 9 9 9 9
10 10 10 10 10 10 10 10 10 10
10 10 11 11 11 11 11 11 11 11
11 11 11 11 12 12 12 12 12 12
12 12 12 12 12 12 13 13 13 13
13 13 13 13 13 13 13 13 14 14
14 14 14 14 14 14 14 14 14 14
15 15 15 15 15 15 15 15 15 15
15 15 16 16 16 16 16 16 16 16
16 16 16 16 17 17 17 17 17 17
17 17 17 17 17 17 18 18 18 18
18 18 18 18 18 18 18 18 19 19
19 19 19 19 19 19 19 19 19 19
20 20 20 20 20 20 20 20 20 20
20 20 21 21 21 21 21 21 21 21
21 21 21 21 22 22 22 22 22 22
22 22 22 22 22 22 23 23 23 23
23 23 23 23 23 23 23 23 24 24
24 24 24 24 24 24 24 24 24 24
25 25 25 25 25 25 25 25 25 25
25 25 26 26 26 26 26 26 26 26
26 26 26 26 27 27 27 27 27 27
27 27 27 27 27 27 28 28 28 28
28 28 28 28 28 28 28 28 29 29
29 29 29 29 29 29 29 29 29 29
30 30 30 30 30 30 30 30 30 30
30 30 31 31 31 31 31 31 31 31
31 31 31 31 32 32 32 32 32 32
32 32 32 32 32 32 33 33 33 33
33 33 33 33 33 33 33 33 34 34
34 34 34 34 34 34 34 34 34 34
35 35 35 35 35 35 35 35 35 35
35 35 36 36 36 36 36 36 36 36
36 36 36 36 37 37 37 37 37 37
37 37 37 37 37 37 38 38 38 38
38 38 38 38 38 38 38 38 39 39
39 39 39 39 39 39 39 39 39 39
40 40 40 40 40 40 40 40 40 40
40 40 41 41 41 41 41 41 41 41
41 41 41 41 42 42 42 42 42 42
42 42 42 42 42 42 43 43 43 43
43 43 43 43 43 43 43 43 44 44
44 44 44 44 44 44 44 44 44 44
45 45 45 45 45 45 45 45 45 45
45 45 46 46 46 46 46 46 46 46
46 46 46 46 47 47 47 47 47 47
47 47 47 47 47 47 48 48 48 48
48 48 48 48 48 48 48 48 49 49
49 49 49 49 49 49 49 49 49 49
50 50 50 50 50 50 50 50 50 50
50 50 51 51 51 51 51 51 51 51
51 51 51 51 52 52 52 52 52 52
52 52 52 52 52 52 53 53 53 53
53 53 53 53 53 53 53 53 54 54
54 54 54 54 54 54 54 54 54 54
55 55 55 55 55 55 55 55 55 55
55 55 56 56 56 56 56 56 56 56
56 56 56 56 57 57 57 57 57 57
57 57 57 57 57 57 58 58 58 58
58 58 58 58 58 58 58 58 59 59
59 59 59 59 59 59 59 59 59 59
60 60 60 60 60 60 60 60 60 60
60 60 61 61 61 61 61 61 61 61
61 61 61 61 62 62 62 62 62 62
62 62 62 62 62 62 63 63 63 63
63 63 63 63 63 63 63 63 64 64
64 64 64 64 64 64 64 64 64 64
65 65 65 65 65 65 65 65 65 65
65 65 66 66 66 66 66 66 66 66
66 66 66 66 67 67 67 67 67 67
67 67 67 67 67 67 68 68 68 68
68 68 68 68 68 68 68 68 69 69
69 69 69 69 69 69 69 69 69 69
70 70 70 70 70 70 70 70 70 70
70 70 71 71 71 71 71 71 71 71
71 71 71 71 72 72 72 72 72 72
72 72 72 72 72 72 73 73 73 73
73 73 73 73 73 73 73 73 74 74
74 74 74 74 74 74 74 74 74 74
75 75 75 75 75 75 75 75 75 75
75 75 76 76 76 76 76 76 76 76
76 76 76 76 77 77 77 77 77 77
77 77 77 77 77 77 78 78 78 78
78 78 78 78 78 78 78 78 79 79
79 79 79 79 79 79 79 79 79 79
80 80 80 80 80 80 80 80 80 80
80 80 81 81 81 81 81 81 81 81
81 81 81 81 82 82 82 82 82 82
82 82 82 82 82 82 83 83 83 83
83 83 83 83 83 83 83 83 84 84
84 84 84 84 84 84 84 84 84 84
