0 	2.08549 	0.805374 	0.0226773
0.0505051 	2.08549 	0.805374 	0.0226773
0.10101 	2.86136 	0.833807 	0.297434
0.151515 	2.86136 	0.833807 	0.297434
0.20202 	3.63723 	0.86224 	0.572191
0.252525 	3.63723 	0.86224 	0.572191
0.30303 	4.3398 	0.631191 	0.570015
0.353535 	4.3398 	0.631191 	0.570015
0.40404 	4.97605 	0.165373 	0.317281
0.454545 	4.97605 	0.165373 	0.317281
0.505051 	5.62387 	-0.290848 	0.0472824
0.555556 	5.62387 	-0.290848 	0.0472824
0.606061 	6.49151 	-0.564709 	-0.550724
0.656566 	6.49151 	-0.564709 	-0.550724
0.707071 	7.35916 	-0.838569 	-1.14873
0.757576 	7.35916 	-0.838569 	-1.14873
0.808081 	7.91799 	-0.861477 	-1.32274
0.858586 	7.91799 	-0.861477 	-1.32274
0.909091 	8.24857 	-0.698898 	-1.18337
0.959596 	8.24857 	-0.698898 	-1.18337
1.0101 	8.53742 	-0.530844 	-1.01615
1.06061 	8.53742 	-0.530844 	-1.01615
1.11111 	8.45067 	-0.313526 	-0.598226
1.16162 	8.45067 	-0.313526 	-0.598226
1.21212 	8.36392 	-0.0962084 	-0.180306
1.26263 	8.36392 	-0.0962084 	-0.180306
1.31313 	8.3553 	-0.145344 	-0.078983
1.36364 	8.3553 	-0.145344 	-0.078983
1.41414 	8.39355 	-0.354351 	-0.167618
1.46465 	8.39355 	-0.354351 	-0.167618
1.51515 	8.43073 	-0.523742 	-0.241688
1.56566 	8.43073 	-0.523742 	-0.241688
1.61616 	8.46183 	-0.468638 	-0.233221
1.66667 	8.46183 	-0.468638 	-0.233221
1.71717 	8.49294 	-0.413535 	-0.224753
0 	8.49294 	-0.413535 	-0.224753
0.0505051 	8.51757 	-0.295817 	-0.151397
0.10101 	8.51757 	-0.295817 	-0.151397
0.151515 	8.5391 	-0.14795 	-0.046798
0.20202 	8.5391 	-0.14795 	-0.046798
0.252525 	8.63422 	-0.0975079 	0.0265482
0.30303 	8.63422 	-0.0975079 	0.0265482
0.353535 	9.02372 	-0.436764 	-0.0251169
0.40404 	9.02372 	-0.436764 	-0.0251169
0.454545 	9.41323 	-0.77602 	-0.076782
0.505051 	9.41323 	-0.77602 	-0.076782
0.555556 	9.82763 	-1.00729 	0.0926145
0.606061 	9.82763 	-1.00729 	0.0926145
0.656566 	10.2515 	-1.19761 	0.345862
0.707071 	10.2515 	-1.19761 	0.345862
0.757576 	10.7138 	-1.35044 	0.486895
0.808081 	10.7138 	-1.35044 	0.486895
0.858586 	11.2917 	-1.39081 	0.291285
0.909091 	11.2917 	-1.39081 	0.291285
0.959596 	11.8696 	-1.43118 	0.095674
1.0101 	11.8696 	-1.43118 	0.095674
1.06061 	12.3165 	-1.17711 	0.121928
1.11111 	12.3165 	-1.17711 	0.121928
1.16162 	12.7253 	-0.837566 	0.212593
1.21212 	12.7253 	-0.837566 	0.212593
1.26263 	13.0768 	-0.464702 	0.286777
1.31313 	13.0768 	-0.464702 	0.286777
1.36364 	13.2946 	-0.0140945 	0.322503
1.41414 	13.2946 	-0.0140945 	0.322503
1.46465 	13.5124 	0.436513 	0.358228
1.51515 	13.5124 	0.436513 	0.358228
1.56566 	12.0166 	0.692866 	0.161106
1.61616 	12.0166 	0.692866 	0.161106
1.66667 	10.1573 	0.908015 	-0.0854086
1.71717 	10.1573 	0.908015 	-0.0854086
1.76768 	8.24976 	1.02352 	-0.111534
1.81818 	8.24976 	1.02352 	-0.111534
1.86869 	6.25259 	0.95398 	0.271635
1.91919 	6.25259 	0.95398 	0.271635
1.9697 	4.25541 	0.884439 	0.654805
2.0202 	4.25541 	0.884439 	0.654805
2.07071 	4.56248 	0.468155 	0.481558
2.12121 	4.56248 	0.468155 	0.481558
2.17172 	5.19874 	0.00233644 	0.228823
2.22222 	5.19874 	0.00233644 	0.228823
2.27273 	5.92754 	-0.386699 	-0.16202
2.32323 	5.92754 	-0.386699 	-0.16202
2.37374 	6.79519 	-0.66056 	-0.760027
2.42424 	6.79519 	-0.66056 	-0.760027
2.47475 	7.66283 	-0.934421 	-1.35803
2.52525 	7.66283 	-0.934421 	-1.35803
2.57576 	8.03369 	-0.804574 	-1.27396
2.62626 	8.03369 	-0.804574 	-1.27396
2.67677 	8.36428 	-0.641995 	-1.13459
2.72727 	8.36428 	-0.641995 	-1.13459
2.77778 	8.50706 	-0.454783 	-0.869874
2.82828 	8.50706 	-0.454783 	-0.869874
2.87879 	8.42031 	-0.237465 	-0.451954
2.92929 	8.42031 	-0.237465 	-0.451954
2.9798 	8.33356 	-0.0201471 	-0.034034
3.0303 	8.33356 	-0.0201471 	-0.034034
3.08081 	8.36869 	-0.218496 	-0.110005
3.13131 	8.36869 	-0.218496 	-0.110005
3.18182 	8.40694 	-0.427504 	-0.198641
3.23232 	8.40694 	-0.427504 	-0.198641
3.28283 	8.44161 	-0.504456 	-0.238725
3.33333 	8.44161 	-0.504456 	-0.238725
1.76768 	8.47272 	-0.449352 	-0.230257
1.81818 	8.47272 	-0.449352 	-0.230257
1.86869 	8.50358 	-0.39193 	-0.219386
1.91919 	8.50358 	-0.39193 	-0.219386
1.9697 	8.52511 	-0.244063 	-0.114787
2.0202 	8.52511 	-0.244063 	-0.114787
2.07071 	8.54663 	-0.0961967 	-0.0101883
2.12121 	8.54663 	-0.0961967 	-0.0101883
2.17172 	8.77055 	-0.216248 	0.00846541
2.22222 	8.77055 	-0.216248 	0.00846541
2.27273 	9.16005 	-0.555504 	-0.0431997
2.32323 	9.16005 	-0.555504 	-0.0431997
2.37374 	9.55213 	-0.883589 	-0.0719964
2.42424 	9.55213 	-0.883589 	-0.0719964
2.47475 	9.97598 	-1.0739 	0.181251
2.52525 	9.97598 	-1.0739 	0.181251
2.57576 	10.3998 	-1.26422 	0.434499
2.62626 	10.3998 	-1.26422 	0.434499
2.67677 	10.9161 	-1.36457 	0.418431
2.72727 	10.9161 	-1.36457 	0.418431
2.77778 	11.494 	-1.40494 	0.222821
2.82828 	11.494 	-1.40494 	0.222821
2.87879 	12.0508 	-1.39782 	0.0629948
2.92929 	12.0508 	-1.39782 	0.0629948
2.9798 	12.4596 	-1.05827 	0.15366
3.0303 	12.4596 	-1.05827 	0.15366
3.08081 	12.8684 	-0.718725 	0.244326
3.13131 	12.8684 	-0.718725 	0.244326
3.18182 	11.8983 	-0.15916 	0.375704
3.23232 	11.8983 	-0.15916 	0.375704
3.28283 	10.1856 	0.518875 	0.529005
3.33333 	10.1856 	0.518875 	0.529005
3.38384 	8.43561 	1.06394 	0.658817
3.43434 	8.43561 	1.06394 	0.658817
3.48485 	6.50959 	0.982114 	0.677897
3.53535 	6.50959 	0.982114 	0.677897
3.58586 	4.58357 	0.900293 	0.696977
3.63636 	4.58357 	0.900293 	0.696977
3.68687 	4.45114 	0.549673 	0.525787
3.73737 	4.45114 	0.549673 	0.525787
3.78788 	5.08739 	0.0838547 	0.273052
3.83838 	5.08739 	0.0838547 	0.273052
3.88889 	5.77571 	-0.338773 	-0.0573688
3.93939 	5.77571 	-0.338773 	-0.0573688
3.9899 	6.64335 	-0.612634 	-0.655375
4.0404 	6.64335 	-0.612634 	-0.655375
4.09091 	7.51099 	-0.886495 	-1.25338
4.14141 	7.51099 	-0.886495 	-1.25338
4.19192 	7.97584 	-0.833026 	-1.29835
4.24242 	7.97584 	-0.833026 	-1.29835
4.29293 	8.30643 	-0.670446 	-1.15898
4.34343 	8.30643 	-0.670446 	-1.15898
4.39394 	8.52224 	-0.492814 	-0.94301
4.44444 	8.52224 	-0.492814 	-0.94301
4.49495 	8.43549 	-0.275496 	-0.52509
4.54545 	8.43549 	-0.275496 	-0.52509
4.59596 	8.34874 	-0.0581777 	-0.10717
4.64646 	8.34874 	-0.0581777 	-0.10717
4.69697 	8.36199 	-0.18192 	-0.0944942
4.74747 	8.36199 	-0.18192 	-0.0944942
4.79798 	8.40024 	-0.390927 	-0.18313
4.84848 	8.40024 	-0.390927 	-0.18313
4.89899 	8.43617 	-0.514099 	-0.240206
4.94949 	8.43617 	-0.514099 	-0.240206
5 	8.46728 	-0.458995 	-0.231739
3.38384 	8.46728 	-0.458995 	-0.231739
3.43434 	8.49838 	-0.403892 	-0.223271
3.48485 	8.49838 	-0.403892 	-0.223271
3.53535 	8.52134 	-0.26994 	-0.133092
3.58586 	8.52134 	-0.26994 	-0.133092
3.63636 	8.54286 	-0.122073 	-0.0284931
3.68687 	8.54286 	-0.122073 	-0.0284931
3.73737 	8.70238 	-0.156878 	0.0175068
3.78788 	8.70238 	-0.156878 	0.0175068
3.83838 	9.09189 	-0.496134 	-0.0341583
3.88889 	9.09189 	-0.496134 	-0.0341583
3.93939 	9.48139 	-0.83539 	-0.0858234
3.9899 	9.48139 	-0.83539 	-0.0858234
4.0404 	9.90181 	-1.0406 	0.136933
4.09091 	9.90181 	-1.0406 	0.136933
4.14141 	10.3257 	-1.23091 	0.39018
4.19192 	10.3257 	-1.23091 	0.39018
4.24242 	10.815 	-1.3575 	0.452663
4.29293 	10.815 	-1.3575 	0.452663
4.34343 	11.3929 	-1.39787 	0.257053
4.39394 	11.3929 	-1.39787 	0.257053
4.44444 	11.9708 	-1.43824 	0.0614421
4.49495 	11.9708 	-1.43824 	0.0614421
4.54545 	12.388 	-1.11769 	0.137794
4.59596 	12.388 	-1.11769 	0.137794
4.64646 	12.7969 	-0.778145 	0.22846
4.69697 	12.7969 	-0.778145 	0.22846
4.74747 	13.0519 	-0.42416 	0.223078
4.79798 	13.0519 	-0.42416 	0.223078
4.84848 	13.137 	-0.0542144 	0.111539
4.89899 	13.137 	-0.0542144 	0.111539
4.94949 	13.2222 	0.315731 	1.96152e-15
5 	13.2222 	0.315731 	1.96152e-15
