0 	1.98217 	0.455218 	-0.427264
0.0505051 	1.98217 	0.455218 	-0.427264
0.10101 	3.21273 	0.636296 	-0.256882
0.151515 	3.21273 	0.636296 	-0.256882
0.20202 	4.44329 	0.817374 	-0.0864988
0.252525 	4.44329 	0.817374 	-0.0864988
0.30303 	5.36882 	0.692338 	0.0288475
0.353535 	5.36882 	0.692338 	0.0288475
0.40404 	6.01835 	0.29034 	0.094399
0.454545 	6.01835 	0.29034 	0.094399
0.505051 	6.67123 	-0.11388 	0.159505
0.555556 	6.67123 	-0.11388 	0.159505
0.606061 	7.38767 	-0.560321 	0.216148
0.656566 	7.38767 	-0.560321 	0.216148
0.707071 	8.10412 	-1.00676 	0.272792
0.757576 	8.10412 	-1.00676 	0.272792
0.808081 	8.55007 	-0.956979 	0.271958
0.858586 	8.55007 	-0.956979 	0.271958
0.909091 	8.79609 	-0.540421 	0.22864
0.959596 	8.79609 	-0.540421 	0.22864
1.0101 	9.02279 	-0.163432 	0.174244
1.06061 	9.02279 	-0.163432 	0.174244
1.11111 	9.07554 	-0.142573 	0.0201398
1.16162 	9.07554 	-0.142573 	0.0201398
1.21212 	9.12829 	-0.121714 	-0.133964
1.26263 	9.12829 	-0.121714 	-0.133964
1.31313 	9.52329 	-0.337456 	-0.26414
1.36364 	9.52329 	-0.337456 	-0.26414
1.41414 	10.1236 	-0.695158 	-0.379959
1.46465 	10.1236 	-0.695158 	-0.379959
1.51515 	10.6753 	-1.01446 	-0.521424
1.56566 	10.6753 	-1.01446 	-0.521424
1.61616 	10.951 	-1.11618 	-0.808222
1.66667 	10.951 	-1.11618 	-0.808222
1.71717 	11.2267 	-1.21789 	-1.09502
0 	11.2267 	-1.21789 	-1.09502
0.0505051 	11.6732 	-1.41087 	-1.15171
0.10101 	11.6732 	-1.41087 	-1.15171
0.151515 	12.2021 	-1.64779 	-1.09761
0.20202 	12.2021 	-1.64779 	-1.09761
0.252525 	12.6822 	-1.87266 	-1.01188
0.30303 	12.6822 	-1.87266 	-1.01188
0.353535 	12.9679 	-2.04931 	-0.799673
0.40404 	12.9679 	-2.04931 	-0.799673
0.454545 	13.2536 	-2.22596 	-0.587463
0.505051 	13.2536 	-2.22596 	-0.587463
0.555556 	13.2774 	-2.32363 	-0.560217
0.606061 	13.2774 	-2.32363 	-0.560217
0.656566 	13.2019 	-2.39133 	-0.60313
0.707071 	13.2019 	-2.39133 	-0.60313
0.757576 	13.1163 	-2.37331 	-0.755348
0.808081 	13.1163 	-2.37331 	-0.755348
0.858586 	13.0006 	-2.09812 	-1.23549
0.909091 	13.0006 	-2.09812 	-1.23549
0.959596 	12.8849 	-1.82293 	-1.71562
1.0101 	12.8849 	-1.82293 	-1.71562
1.06061 	13.0631 	-1.60305 	-1.89597
1.11111 	13.0631 	-1.60305 	-1.89597
1.16162 	13.3267 	-1.39922 	-1.98929
1.21212 	13.3267 	-1.39922 	-1.98929
1.26263 	13.5521 	-1.15452 	-2.01856
1.31313 	13.5521 	-1.15452 	-2.01856
1.36364 	13.6885 	-0.81444 	-1.89839
1.41414 	13.6885 	-0.81444 	-1.89839
1.46465 	13.8249 	-0.474362 	-1.77822
1.51515 	13.8249 	-0.474362 	-1.77822
1.56566 	12.0232 	-0.0485986 	-1.61223
1.61616 	12.0232 	-0.0485986 	-1.61223
1.66667 	9.81042 	0.395341 	-1.43651
1.71717 	9.81042 	0.395341 	-1.43651
1.76768 	7.89918 	0.71494 	-1.1361
1.81818 	7.89918 	0.71494 	-1.1361
1.86869 	6.54795 	0.803621 	-0.604083
1.91919 	6.54795 	0.803621 	-0.604083
1.9697 	5.19672 	0.892301 	-0.0720688
2.0202 	5.19672 	0.892301 	-0.0720688
2.07071 	5.59615 	0.551638 	0.0517905
2.12121 	5.59615 	0.551638 	0.0517905
2.17172 	6.24569 	0.149641 	0.117342
2.22222 	6.24569 	0.149641 	0.117342
2.27273 	6.92198 	-0.270134 	0.17933
2.32323 	6.92198 	-0.270134 	0.17933
2.37374 	7.63843 	-0.716576 	0.235974
2.42424 	7.63843 	-0.716576 	0.235974
2.47475 	8.35487 	-1.16302 	0.292617
2.52525 	8.35487 	-1.16302 	0.292617
2.57576 	8.63618 	-0.811184 	0.256797
2.62626 	8.63618 	-0.811184 	0.256797
2.67677 	8.8822 	-0.394625 	0.213479
2.72727 	8.8822 	-0.394625 	0.213479
2.77778 	9.04125 	-0.156132 	0.120308
2.82828 	9.04125 	-0.156132 	0.120308
2.87879 	9.094 	-0.135273 	-0.0337967
2.92929 	9.094 	-0.135273 	-0.0337967
2.9798 	9.14676 	-0.114414 	-0.187901
3.0303 	9.14676 	-0.114414 	-0.187901
3.08081 	9.73341 	-0.462652 	-0.304677
3.13131 	9.73341 	-0.462652 	-0.304677
3.18182 	10.3338 	-0.820354 	-0.420495
3.23232 	10.3338 	-0.820354 	-0.420495
3.28283 	10.7718 	-1.05006 	-0.621803
3.33333 	10.7718 	-1.05006 	-0.621803
1.76768 	11.0475 	-1.15178 	-0.908601
1.81818 	11.0475 	-1.15178 	-0.908601
1.86869 	11.3295 	-1.25687 	-1.18688
1.91919 	11.3295 	-1.25687 	-1.18688
1.9697 	11.8583 	-1.49379 	-1.13277
2.0202 	11.8583 	-1.49379 	-1.13277
2.07071 	12.3871 	-1.73071 	-1.07867
2.12121 	12.3871 	-1.73071 	-1.07867
2.17172 	12.7822 	-1.93448 	-0.937609
2.22222 	12.7822 	-1.93448 	-0.937609
2.27273 	13.0679 	-2.11114 	-0.725399
2.32323 	13.0679 	-2.11114 	-0.725399
2.37374 	13.3265 	-2.27962 	-0.532323
2.42424 	13.3265 	-2.27962 	-0.532323
2.47475 	13.2509 	-2.34732 	-0.575236
2.52525 	13.2509 	-2.34732 	-0.575236
2.57576 	13.1754 	-2.41503 	-0.618149
2.62626 	13.1754 	-2.41503 	-0.618149
2.67677 	13.0758 	-2.277 	-0.923396
2.72727 	13.0758 	-2.277 	-0.923396
2.77778 	12.9601 	-2.0018 	-1.40353
2.82828 	12.9601 	-2.0018 	-1.40353
2.87879 	12.8918 	-1.73553 	-1.83532
2.92929 	12.8918 	-1.73553 	-1.83532
2.9798 	13.1553 	-1.53171 	-1.92864
3.0303 	13.1553 	-1.53171 	-1.92864
3.08081 	13.4189 	-1.32788 	-2.02195
3.13131 	13.4189 	-1.32788 	-2.02195
3.18182 	12.4422 	-0.975996 	-1.85365
3.23232 	12.4422 	-0.975996 	-1.85365
3.28283 	10.7977 	-0.54439 	-1.54448
3.33333 	10.7977 	-0.54439 	-1.54448
3.38384 	9.12894 	-0.111123 	-1.19864
3.43434 	9.12894 	-0.111123 	-1.19864
3.48485 	7.34584 	0.329968 	-0.679911
3.53535 	7.34584 	0.329968 	-0.679911
3.58586 	5.56274 	0.771059 	-0.161185
3.63636 	5.56274 	0.771059 	-0.161185
3.68687 	5.48248 	0.621988 	0.040319
3.73737 	5.48248 	0.621988 	0.040319
3.78788 	6.13202 	0.21999 	0.10587
3.83838 	6.13202 	0.21999 	0.10587
3.88889 	6.79661 	-0.192007 	0.169418
3.93939 	6.79661 	-0.192007 	0.169418
3.9899 	7.51305 	-0.638448 	0.226061
4.0404 	7.51305 	-0.638448 	0.226061
4.09091 	8.22949 	-1.08489 	0.282704
4.14141 	8.22949 	-1.08489 	0.282704
4.19192 	8.59312 	-0.884081 	0.264377
4.24242 	8.59312 	-0.884081 	0.264377
4.29293 	8.83915 	-0.467523 	0.22106
4.34343 	8.83915 	-0.467523 	0.22106
4.39394 	9.03202 	-0.159782 	0.147276
4.44444 	9.03202 	-0.159782 	0.147276
4.49495 	9.08477 	-0.138923 	-0.00682845
4.54545 	9.08477 	-0.138923 	-0.00682845
4.59596 	9.13752 	-0.118064 	-0.160933
4.64646 	9.13752 	-0.118064 	-0.160933
4.69697 	9.62835 	-0.400054 	-0.284408
4.74747 	9.62835 	-0.400054 	-0.284408
4.79798 	10.2287 	-0.757756 	-0.400227
4.84848 	10.2287 	-0.757756 	-0.400227
4.89899 	10.7235 	-1.03226 	-0.571614
4.94949 	10.7235 	-1.03226 	-0.571614
5 	10.9992 	-1.13398 	-0.858412
3.38384 	10.9992 	-1.13398 	-0.858412
3.43434 	11.2749 	-1.23569 	-1.14521
3.48485 	11.2749 	-1.23569 	-1.14521
3.53535 	11.7658 	-1.45233 	-1.14224
3.58586 	11.7658 	-1.45233 	-1.14224
3.63636 	12.2946 	-1.68925 	-1.08814
3.68687 	12.2946 	-1.68925 	-1.08814
3.73737 	12.7322 	-1.90357 	-0.974746
3.78788 	12.7322 	-1.90357 	-0.974746
3.83838 	13.0179 	-2.08022 	-0.762536
3.88889 	13.0179 	-2.08022 	-0.762536
3.93939 	13.3036 	-2.25688 	-0.550326
3.9899 	13.3036 	-2.25688 	-0.550326
4.0404 	13.2642 	-2.33548 	-0.567726
4.09091 	13.2642 	-2.33548 	-0.567726
4.14141 	13.1886 	-2.40318 	-0.610639
4.19192 	13.1886 	-2.40318 	-0.610639
4.24242 	13.096 	-2.32516 	-0.839372
4.29293 	13.096 	-2.32516 	-0.839372
4.34343 	12.9803 	-2.04996 	-1.31951
4.39394 	12.9803 	-2.04996 	-1.31951
4.44444 	12.8646 	-1.77477 	-1.79965
4.49495 	12.8646 	-1.77477 	-1.79965
4.54545 	13.1092 	-1.56738 	-1.91231
4.59596 	13.1092 	-1.56738 	-1.91231
4.64646 	13.3728 	-1.36355 	-2.00562
4.69697 	13.3728 	-1.36355 	-2.00562
4.74747 	13.8379 	-1.29756 	-1.66029
4.79798 	13.8379 	-1.29756 	-1.66029
4.84848 	14.5259 	-1.38391 	-0.830147
4.89899 	14.5259 	-1.38391 	-0.830147
4.94949 	15.2138 	-1.47026 	-1.45989e-14
5 	15.2138 	-1.47026 	-1.45989e-14
