# Probe 0 (0.05 0 0.002)
# Probe 1 (0.05 0.01 0.002)
# Probe 2 (0.05 0.01 0.002)
# Probe 3 (0.05 0.01 0.002)
# Probe 4 (0.05 0.01 0.002)
# Probe 5 (0.05 0.01 0.002)
# Probe 6 (0.05 0.01 0.002)
#       Probe             0             1             2             3             4             5             6
#        Time
   0.00011999      -62.6498       -59.479       -59.479       -59.479       -59.479       -59.479       -59.479
  0.000263965       22.2581       21.1227       21.1227       21.1227       21.1227       21.1227       21.1227
  0.000436705    -0.0139411    -0.0127206    -0.0127206    -0.0127206    -0.0127206    -0.0127206    -0.0127206
  0.000643906    0.00469462    0.00342071    0.00342071    0.00342071    0.00342071    0.00342071    0.00342071
  0.000892466     0.0251627     0.0212747     0.0212747     0.0212747     0.0212747     0.0212747     0.0212747
   0.00119062     0.0342945     0.0294349     0.0294349     0.0294349     0.0294349     0.0294349     0.0294349
   0.00154615     0.0361052      0.031144      0.031144      0.031144      0.031144      0.031144      0.031144
   0.00195878     0.0345194     0.0297686     0.0297686     0.0297686     0.0297686     0.0297686     0.0297686
   0.00242774     0.0315409      0.027082      0.027082      0.027082      0.027082      0.027082      0.027082
   0.00295261     0.0279395     0.0237857     0.0237857     0.0237857     0.0237857     0.0237857     0.0237857
   0.00350921     0.0246351     0.0207472     0.0207472     0.0207472     0.0207472     0.0207472     0.0207472
   0.00406148     0.0220788     0.0183928     0.0183928     0.0183928     0.0183928     0.0183928     0.0183928
   0.00461069     0.0199976     0.0164792     0.0164792     0.0164792     0.0164792     0.0164792     0.0164792
   0.00515808     0.0183795      0.015009      0.015009      0.015009      0.015009      0.015009      0.015009
   0.00570548     0.0172112     0.0139719     0.0139719     0.0139719     0.0139719     0.0139719     0.0139719
   0.00625408     0.0163148     0.0131883     0.0131883     0.0131883     0.0131883     0.0131883     0.0131883
   0.00680575     0.0156463     0.0126092     0.0126092     0.0126092     0.0126092     0.0126092     0.0126092
   0.00736241     0.0153313     0.0123591     0.0123591     0.0123591     0.0123591     0.0123591     0.0123591
   0.00792478      0.015157     0.0122322     0.0122322     0.0122322     0.0122322     0.0122322     0.0122322
   0.00849497     0.0149135     0.0120435     0.0120435     0.0120435     0.0120435     0.0120435     0.0120435
   0.00907389     0.0142142     0.0114671     0.0114671     0.0114671     0.0114671     0.0114671     0.0114671
   0.00966253     0.0177315     0.0146265     0.0146265     0.0146265     0.0146265     0.0146265     0.0146265
    0.0102612     0.0186669     0.0154354     0.0154354     0.0154354     0.0154354     0.0154354     0.0154354
    0.0108711     0.0180453      0.014845      0.014845      0.014845      0.014845      0.014845      0.014845
    0.0114911     0.0160172     0.0130073     0.0130073     0.0130073     0.0130073     0.0130073     0.0130073
    0.0121214     0.0149577     0.0120687     0.0120687     0.0120687     0.0120687     0.0120687     0.0120687
    0.0127608     0.0130132     0.0102957     0.0102957     0.0102957     0.0102957     0.0102957     0.0102957
    0.0134079     0.0120143    0.00934691    0.00934691    0.00934691    0.00934691    0.00934691    0.00934691
     0.014061     0.0123055    0.00955253    0.00955253    0.00955253    0.00955253    0.00955253    0.00955253
    0.0147186     0.0132477     0.0103241     0.0103241     0.0103241     0.0103241     0.0103241     0.0103241
    0.0153779     0.0132094     0.0102496     0.0102496     0.0102496     0.0102496     0.0102496     0.0102496
    0.0160373     0.0130793     0.0100882     0.0100882     0.0100882     0.0100882     0.0100882     0.0100882
    0.0166948     0.0129437    0.00990679    0.00990679    0.00990679    0.00990679    0.00990679    0.00990679
    0.0173497     0.0131295     0.0100483     0.0100483     0.0100483     0.0100483     0.0100483     0.0100483
    0.0180028     0.0134138     0.0102896     0.0102896     0.0102896     0.0102896     0.0102896     0.0102896
    0.0186533     0.0135339     0.0103679     0.0103679     0.0103679     0.0103679     0.0103679     0.0103679
     0.019302     0.0135202     0.0103262     0.0103262     0.0103262     0.0103262     0.0103262     0.0103262
    0.0199499     0.0129208    0.00976794    0.00976794    0.00976794    0.00976794    0.00976794    0.00976794
    0.0205986     0.0144029     0.0109855     0.0109855     0.0109855     0.0109855     0.0109855     0.0109855
    0.0212499     0.0152138     0.0116607     0.0116607     0.0116607     0.0116607     0.0116607     0.0116607
    0.0219049     0.0141851     0.0107185     0.0107185     0.0107185     0.0107185     0.0107185     0.0107185
    0.0225643     0.0145227     0.0109422     0.0109422     0.0109422     0.0109422     0.0109422     0.0109422
    0.0232302     0.0148245     0.0110902     0.0110902     0.0110902     0.0110902     0.0110902     0.0110902
    0.0239036     0.0160696     0.0121037     0.0121037     0.0121037     0.0121037     0.0121037     0.0121037
    0.0245837     0.0162063     0.0120938     0.0120938     0.0120938     0.0120938     0.0120938     0.0120938
    0.0252717     0.0155574     0.0113474     0.0113474     0.0113474     0.0113474     0.0113474     0.0113474
    0.0259678     0.0153145     0.0109872     0.0109872     0.0109872     0.0109872     0.0109872     0.0109872
    0.0266711       0.01601     0.0114813     0.0114813     0.0114813     0.0114813     0.0114813     0.0114813
    0.0273797     0.0161829     0.0114948     0.0114948     0.0114948     0.0114948     0.0114948     0.0114948
    0.0280926     0.0161189     0.0113049     0.0113049     0.0113049     0.0113049     0.0113049     0.0113049
    0.0288087     0.0162071     0.0112138     0.0112138     0.0112138     0.0112138     0.0112138     0.0112138
    0.0295258      0.016813     0.0115559     0.0115559     0.0115559     0.0115559     0.0115559     0.0115559
     0.030243     0.0164782     0.0110784     0.0110784     0.0110784     0.0110784     0.0110784     0.0110784
    0.0309602     0.0160349     0.0105191     0.0105191     0.0105191     0.0105191     0.0105191     0.0105191
    0.0316774     0.0158336     0.0102034     0.0102034     0.0102034     0.0102034     0.0102034     0.0102034
    0.0323946     0.0154102    0.00967584    0.00967584    0.00967584    0.00967584    0.00967584    0.00967584
    0.0331118     0.0170499     0.0110024     0.0110024     0.0110024     0.0110024     0.0110024     0.0110024
    0.0338301     0.0176649     0.0114142     0.0114142     0.0114142     0.0114142     0.0114142     0.0114142
    0.0345506     0.0180784     0.0116385     0.0116385     0.0116385     0.0116385     0.0116385     0.0116385
    0.0352733     0.0183615     0.0117316     0.0117316     0.0117316     0.0117316     0.0117316     0.0117316
    0.0360006     0.0187171     0.0118169     0.0118169     0.0118169     0.0118169     0.0118169     0.0118169
    0.0367325     0.0189535     0.0117884     0.0117884     0.0117884     0.0117884     0.0117884     0.0117884
    0.0374701     0.0195516     0.0120314     0.0120314     0.0120314     0.0120314     0.0120314     0.0120314
     0.038215     0.0208772     0.0129381     0.0129381     0.0129381     0.0129381     0.0129381     0.0129381
    0.0389658     0.0211619      0.012922      0.012922      0.012922      0.012922      0.012922      0.012922
    0.0397229     0.0216635     0.0130439     0.0130439     0.0130439     0.0130439     0.0130439     0.0130439
    0.0404862     0.0221915     0.0132292     0.0132292     0.0132292     0.0132292     0.0132292     0.0132292
    0.0412546     0.0216685     0.0125449     0.0125449     0.0125449     0.0125449     0.0125449     0.0125449
    0.0420282     0.0226161     0.0131375     0.0131375     0.0131375     0.0131375     0.0131375     0.0131375
    0.0428057     0.0229885     0.0132189     0.0132189     0.0132189     0.0132189     0.0132189     0.0132189
    0.0435873     0.0231084     0.0130713     0.0130713     0.0130713     0.0130713     0.0130713     0.0130713
    0.0443715     0.0235066     0.0131769     0.0131769     0.0131769     0.0131769     0.0131769     0.0131769
     0.045157     0.0235036     0.0129233     0.0129233     0.0129233     0.0129233     0.0129233     0.0129233
    0.0459453     0.0245072      0.013467      0.013467      0.013467      0.013467      0.013467      0.013467
    0.0467364     0.0242801     0.0129699     0.0129699     0.0129699     0.0129699     0.0129699     0.0129699
    0.0475302      0.023736     0.0124995     0.0124995     0.0124995     0.0124995     0.0124995     0.0124995
    0.0483268     0.0237608     0.0122906     0.0122906     0.0122906     0.0122906     0.0122906     0.0122906
    0.0491262      0.023838     0.0121254     0.0121254     0.0121254     0.0121254     0.0121254     0.0121254
    0.0499285     0.0240958      0.012142      0.012142      0.012142      0.012142      0.012142      0.012142
     0.050735     0.0239587     0.0118289     0.0118289     0.0118289     0.0118289     0.0118289     0.0118289
    0.0515416     0.0240447     0.0117466     0.0117466     0.0117466     0.0117466     0.0117466     0.0117466
    0.0523482     0.0241432     0.0116975     0.0116975     0.0116975     0.0116975     0.0116975     0.0116975
    0.0531548     0.0241701     0.0116046     0.0116046     0.0116046     0.0116046     0.0116046     0.0116046
    0.0539628     0.0238904     0.0112173     0.0112173     0.0112173     0.0112173     0.0112173     0.0112173
    0.0547709      0.024304     0.0115107     0.0115107     0.0115107     0.0115107     0.0115107     0.0115107
     0.055576     0.0231366     0.0103255     0.0103255     0.0103255     0.0103255     0.0103255     0.0103255
    0.0563796     0.0224772    0.00983291    0.00983291    0.00983291    0.00983291    0.00983291    0.00983291
    0.0571818     0.0221814    0.00961411    0.00961411    0.00961411    0.00961411    0.00961411    0.00961411
     0.057984     0.0220887    0.00932061    0.00932061    0.00932061    0.00932061    0.00932061    0.00932061
    0.0587877     0.0233996     0.0103775     0.0103775     0.0103775     0.0103775     0.0103775     0.0103775
    0.0595943      0.023397      0.010491      0.010491      0.010491      0.010491      0.010491      0.010491
    0.0604039     0.0241137     0.0112304     0.0112304     0.0112304     0.0112304     0.0112304     0.0112304
    0.0612165     0.0243162     0.0114036     0.0114036     0.0114036     0.0114036     0.0114036     0.0114036
    0.0620305     0.0235229     0.0107913     0.0107913     0.0107913     0.0107913     0.0107913     0.0107913
    0.0628461     0.0239213      0.011337      0.011337      0.011337      0.011337      0.011337      0.011337
    0.0636632     0.0243172     0.0120788     0.0120788     0.0120788     0.0120788     0.0120788     0.0120788
    0.0644819     0.0244977     0.0124486     0.0124486     0.0124486     0.0124486     0.0124486     0.0124486
    0.0653036     0.0247421     0.0128599     0.0128599     0.0128599     0.0128599     0.0128599     0.0128599
    0.0661284     0.0250552     0.0133143     0.0133143     0.0133143     0.0133143     0.0133143     0.0133143
    0.0669564     0.0248537     0.0132945     0.0132945     0.0132945     0.0132945     0.0132945     0.0132945
    0.0677876     0.0244705     0.0130971     0.0130971     0.0130971     0.0130971     0.0130971     0.0130971
     0.068622     0.0243216     0.0130938     0.0130938     0.0130938     0.0130938     0.0130938     0.0130938
     0.069458     0.0243723     0.0132621     0.0132621     0.0132621     0.0132621     0.0132621     0.0132621
    0.0702956     0.0241583     0.0130976     0.0130976     0.0130976     0.0130976     0.0130976     0.0130976
    0.0711349      0.024378      0.013678      0.013678      0.013678      0.013678      0.013678      0.013678
    0.0719758     0.0250809     0.0144895     0.0144895     0.0144895     0.0144895     0.0144895     0.0144895
      0.07282     0.0253006     0.0147239     0.0147239     0.0147239     0.0147239     0.0147239     0.0147239
    0.0736676     0.0253195     0.0147595     0.0147595     0.0147595     0.0147595     0.0147595     0.0147595
    0.0745203     0.0252168     0.0146547     0.0146547     0.0146547     0.0146547     0.0146547     0.0146547
    0.0753764     0.0252822     0.0146658     0.0146658     0.0146658     0.0146658     0.0146658     0.0146658
    0.0762377     0.0251677     0.0144965     0.0144965     0.0144965     0.0144965     0.0144965     0.0144965
    0.0771008      0.025141     0.0143731     0.0143731     0.0143731     0.0143731     0.0143731     0.0143731
    0.0779638     0.0250998     0.0140991     0.0140991     0.0140991     0.0140991     0.0140991     0.0140991
    0.0788269     0.0245195     0.0134191     0.0134191     0.0134191     0.0134191     0.0134191     0.0134191
    0.0796899     0.0238219     0.0126086     0.0126086     0.0126086     0.0126086     0.0126086     0.0126086
     0.080553     0.0228584     0.0123359     0.0123359     0.0123359     0.0123359     0.0123359     0.0123359
    0.0814161     0.0258351     0.0130766     0.0130766     0.0130766     0.0130766     0.0130766     0.0130766
    0.0822809     0.0260111     0.0127507     0.0127507     0.0127507     0.0127507     0.0127507     0.0127507
    0.0831475     0.0260253     0.0122719     0.0122719     0.0122719     0.0122719     0.0122719     0.0122719
     0.084016     0.0259842     0.0117361     0.0117361     0.0117361     0.0117361     0.0117361     0.0117361
    0.0848844     0.0256599     0.0108798     0.0108798     0.0108798     0.0108798     0.0108798     0.0108798
    0.0857492     0.0253574     0.0100109     0.0100109     0.0100109     0.0100109     0.0100109     0.0100109
    0.0866123     0.0250232    0.00906206    0.00906206    0.00906206    0.00906206    0.00906206    0.00906206
    0.0874753     0.0246496    0.00803638    0.00803638    0.00803638    0.00803638    0.00803638    0.00803638
    0.0883365     0.0241529    0.00680698    0.00680698    0.00680698    0.00680698    0.00680698    0.00680698
    0.0891959     0.0238634    0.00572693    0.00572693    0.00572693    0.00572693    0.00572693    0.00572693
    0.0900518     0.0233078    0.00439577    0.00439577    0.00439577    0.00439577    0.00439577    0.00439577
    0.0909058     0.0222103    0.00294738    0.00294738    0.00294738    0.00294738    0.00294738    0.00294738
    0.0917563     0.0222113     0.0015664     0.0015664     0.0015664     0.0015664     0.0015664     0.0015664
    0.0926033     0.0221971   0.000136081   0.000136081   0.000136081   0.000136081   0.000136081   0.000136081
    0.0934485      0.021759   -0.00126415   -0.00126415   -0.00126415   -0.00126415   -0.00126415   -0.00126415
     0.094292     0.0211624    -0.0022771    -0.0022771    -0.0022771    -0.0022771    -0.0022771    -0.0022771
    0.0951355     0.0207168   -0.00372501   -0.00372501   -0.00372501   -0.00372501   -0.00372501   -0.00372501
    0.0959789     0.0202473   -0.00519669   -0.00519669   -0.00519669   -0.00519669   -0.00519669   -0.00519669
    0.0968224     0.0194839   -0.00685708   -0.00685708   -0.00685708   -0.00685708   -0.00685708   -0.00685708
    0.0976659     0.0189015   -0.00840916   -0.00840916   -0.00840916   -0.00840916   -0.00840916   -0.00840916
    0.0985111     0.0183529   -0.00994094   -0.00994094   -0.00994094   -0.00994094   -0.00994094   -0.00994094
    0.0993581     0.0177527    -0.0115261    -0.0115261    -0.0115261    -0.0115261    -0.0115261    -0.0115261
     0.100207     0.0169362    -0.0133448    -0.0133448    -0.0133448    -0.0133448    -0.0133448    -0.0133448
     0.101058      0.016349    -0.0149916    -0.0149916    -0.0149916    -0.0149916    -0.0149916    -0.0149916
      0.10191     0.0159551    -0.0166121    -0.0166121    -0.0166121    -0.0166121    -0.0166121    -0.0166121
     0.102764     0.0162784    -0.0182036    -0.0182036    -0.0182036    -0.0182036    -0.0182036    -0.0182036
     0.103622     0.0161877    -0.0197315    -0.0197315    -0.0197315    -0.0197315    -0.0197315    -0.0197315
     0.104482     0.0117741    -0.0221989    -0.0221989    -0.0221989    -0.0221989    -0.0221989    -0.0221989
     0.105346     0.0108072    -0.0239787    -0.0239787    -0.0239787    -0.0239787    -0.0239787    -0.0239787
     0.106211    0.00951827    -0.0261873    -0.0261873    -0.0261873    -0.0261873    -0.0261873    -0.0261873
     0.107078    0.00847219    -0.0282127    -0.0282127    -0.0282127    -0.0282127    -0.0282127    -0.0282127
     0.107948     0.0075269    -0.0301534    -0.0301534    -0.0301534    -0.0301534    -0.0301534    -0.0301534
     0.108819    0.00618931    -0.0324371    -0.0324371    -0.0324371    -0.0324371    -0.0324371    -0.0324371
     0.109692    0.00513084    -0.0344787    -0.0344787    -0.0344787    -0.0344787    -0.0344787    -0.0344787
     0.110565    0.00427694     -0.036318     -0.036318     -0.036318     -0.036318     -0.036318     -0.036318
      0.11144    0.00312314    -0.0383881    -0.0383881    -0.0383881    -0.0383881    -0.0383881    -0.0383881
     0.112316    0.00182167    -0.0405682    -0.0405682    -0.0405682    -0.0405682    -0.0405682    -0.0405682
     0.113191   0.000568499    -0.0426722    -0.0426722    -0.0426722    -0.0426722    -0.0426722    -0.0426722
     0.114066  -0.000787331    -0.0448601    -0.0448601    -0.0448601    -0.0448601    -0.0448601    -0.0448601
     0.114939   -0.00193884    -0.0468923    -0.0468923    -0.0468923    -0.0468923    -0.0468923    -0.0468923
      0.11581   -0.00347367    -0.0491244    -0.0491244    -0.0491244    -0.0491244    -0.0491244    -0.0491244
     0.116681   -0.00472083    -0.0511864    -0.0511864    -0.0511864    -0.0511864    -0.0511864    -0.0511864
     0.117551   -0.00583804    -0.0532044    -0.0532044    -0.0532044    -0.0532044    -0.0532044    -0.0532044
     0.118418   -0.00646731    -0.0551198    -0.0551198    -0.0551198    -0.0551198    -0.0551198    -0.0551198
     0.119283   -0.00919018    -0.0575413    -0.0575413    -0.0575413    -0.0575413    -0.0575413    -0.0575413
     0.120146    -0.0104287    -0.0595108    -0.0595108    -0.0595108    -0.0595108    -0.0595108    -0.0595108
     0.121008     -0.012694     -0.062082     -0.062082     -0.062082     -0.062082     -0.062082     -0.062082
     0.121867    -0.0142197    -0.0642831    -0.0642831    -0.0642831    -0.0642831    -0.0642831    -0.0642831
     0.122723    -0.0157178    -0.0664287    -0.0664287    -0.0664287    -0.0664287    -0.0664287    -0.0664287
     0.123576    -0.0171989    -0.0685146    -0.0685146    -0.0685146    -0.0685146    -0.0685146    -0.0685146
      0.12443    -0.0186326    -0.0704898    -0.0704898    -0.0704898    -0.0704898    -0.0704898    -0.0704898
     0.125281    -0.0202511    -0.0726065    -0.0726065    -0.0726065    -0.0726065    -0.0726065    -0.0726065
     0.126131     -0.021821    -0.0745622    -0.0745622    -0.0745622    -0.0745622    -0.0745622    -0.0745622
     0.126979    -0.0233847    -0.0764946    -0.0764946    -0.0764946    -0.0764946    -0.0764946    -0.0764946
     0.127827    -0.0250976    -0.0786471    -0.0786471    -0.0786471    -0.0786471    -0.0786471    -0.0786471
     0.128673     -0.026836    -0.0808923    -0.0808923    -0.0808923    -0.0808923    -0.0808923    -0.0808923
     0.129518     -0.028562    -0.0829864    -0.0829864    -0.0829864    -0.0829864    -0.0829864    -0.0829864
     0.130364    -0.0302992    -0.0846796    -0.0846796    -0.0846796    -0.0846796    -0.0846796    -0.0846796
      0.13121    -0.0317983    -0.0863005    -0.0863005    -0.0863005    -0.0863005    -0.0863005    -0.0863005
     0.132056    -0.0334273    -0.0880812    -0.0880812    -0.0880812    -0.0880812    -0.0880812    -0.0880812
     0.132902    -0.0349245    -0.0896767    -0.0896767    -0.0896767    -0.0896767    -0.0896767    -0.0896767
      0.13375     -0.036455    -0.0912476    -0.0912476    -0.0912476    -0.0912476    -0.0912476    -0.0912476
     0.134599    -0.0379224    -0.0927003    -0.0927003    -0.0927003    -0.0927003    -0.0927003    -0.0927003
     0.135451    -0.0393479    -0.0941455    -0.0941455    -0.0941455    -0.0941455    -0.0941455    -0.0941455
     0.136305    -0.0410093    -0.0955662    -0.0955662    -0.0955662    -0.0955662    -0.0955662    -0.0955662
     0.137161    -0.0433415    -0.0972536    -0.0972536    -0.0972536    -0.0972536    -0.0972536    -0.0972536
     0.138018    -0.0449045    -0.0984986    -0.0984986    -0.0984986    -0.0984986    -0.0984986    -0.0984986
     0.138878    -0.0465052    -0.0997521    -0.0997521    -0.0997521    -0.0997521    -0.0997521    -0.0997521
      0.13974    -0.0479148     -0.100793     -0.100793     -0.100793     -0.100793     -0.100793     -0.100793
     0.140606    -0.0494073     -0.101866     -0.101866     -0.101866     -0.101866     -0.101866     -0.101866
     0.141474      -0.05074     -0.102798     -0.102798     -0.102798     -0.102798     -0.102798     -0.102798
     0.142344     -0.052783     -0.104183     -0.104183     -0.104183     -0.104183     -0.104183     -0.104183
     0.143219    -0.0544344     -0.105328     -0.105328     -0.105328     -0.105328     -0.105328     -0.105328
     0.144095    -0.0557497     -0.106184     -0.106184     -0.106184     -0.106184     -0.106184     -0.106184
     0.144974    -0.0572892     -0.107199     -0.107199     -0.107199     -0.107199     -0.107199     -0.107199
     0.145855    -0.0586673     -0.108044     -0.108044     -0.108044     -0.108044     -0.108044     -0.108044
     0.146738     -0.059963     -0.108781     -0.108781     -0.108781     -0.108781     -0.108781     -0.108781
     0.147621    -0.0613412      -0.10947      -0.10947      -0.10947      -0.10947      -0.10947      -0.10947
     0.148507    -0.0628471     -0.110506     -0.110506     -0.110506     -0.110506     -0.110506     -0.110506
     0.149394    -0.0642518      -0.11128      -0.11128      -0.11128      -0.11128      -0.11128      -0.11128
     0.150282    -0.0655859     -0.111958     -0.111958     -0.111958     -0.111958     -0.111958     -0.111958
      0.15117    -0.0668858     -0.112591     -0.112591     -0.112591     -0.112591     -0.112591     -0.112591
     0.152057    -0.0681425     -0.113173     -0.113173     -0.113173     -0.113173     -0.113173     -0.113173
     0.152945    -0.0693658     -0.113716     -0.113716     -0.113716     -0.113716     -0.113716     -0.113716
     0.153833    -0.0704593     -0.114128     -0.114128     -0.114128     -0.114128     -0.114128     -0.114128
      0.15472     -0.071646     -0.114631     -0.114631     -0.114631     -0.114631     -0.114631     -0.114631
     0.155608    -0.0727767     -0.115083     -0.115083     -0.115083     -0.115083     -0.115083     -0.115083
     0.156493    -0.0737493     -0.115416     -0.115416     -0.115416     -0.115416     -0.115416     -0.115416
     0.157378    -0.0749955     -0.115934     -0.115934     -0.115934     -0.115934     -0.115934     -0.115934
     0.158264    -0.0761795     -0.116445     -0.116445     -0.116445     -0.116445     -0.116445     -0.116445
     0.159147    -0.0771627     -0.116753     -0.116753     -0.116753     -0.116753     -0.116753     -0.116753
      0.16003    -0.0781978     -0.117073     -0.117073     -0.117073     -0.117073     -0.117073     -0.117073
     0.160913     -0.079255     -0.117453     -0.117453     -0.117453     -0.117453     -0.117453     -0.117453
     0.161794     -0.080163     -0.117696     -0.117696     -0.117696     -0.117696     -0.117696     -0.117696
     0.162674    -0.0810591     -0.117893     -0.117893     -0.117893     -0.117893     -0.117893     -0.117893
     0.163555    -0.0819494     -0.118083     -0.118083     -0.118083     -0.118083     -0.118083     -0.118083
     0.164436    -0.0828065     -0.118268     -0.118268     -0.118268     -0.118268     -0.118268     -0.118268
     0.165317    -0.0835772      -0.11838      -0.11838      -0.11838      -0.11838      -0.11838      -0.11838
     0.166197    -0.0844775     -0.118632     -0.118632     -0.118632     -0.118632     -0.118632     -0.118632
     0.167078    -0.0853167     -0.118835     -0.118835     -0.118835     -0.118835     -0.118835     -0.118835
     0.167961    -0.0861154     -0.119018     -0.119018     -0.119018     -0.119018     -0.119018     -0.119018
     0.168844    -0.0868826     -0.119194     -0.119194     -0.119194     -0.119194     -0.119194     -0.119194
      0.16973    -0.0877159     -0.119447     -0.119447     -0.119447     -0.119447     -0.119447     -0.119447
     0.170615    -0.0884335      -0.11964      -0.11964      -0.11964      -0.11964      -0.11964      -0.11964
     0.171503    -0.0891112     -0.119808     -0.119808     -0.119808     -0.119808     -0.119808     -0.119808
     0.172391    -0.0897609      -0.11995      -0.11995      -0.11995      -0.11995      -0.11995      -0.11995
     0.173281    -0.0906586     -0.120321     -0.120321     -0.120321     -0.120321     -0.120321     -0.120321
     0.174174    -0.0913611     -0.120493     -0.120493     -0.120493     -0.120493     -0.120493     -0.120493
     0.175066    -0.0920284     -0.120633     -0.120633     -0.120633     -0.120633     -0.120633     -0.120633
     0.175961     -0.092662     -0.120749     -0.120749     -0.120749     -0.120749     -0.120749     -0.120749
     0.176859    -0.0933496     -0.120933     -0.120933     -0.120933     -0.120933     -0.120933     -0.120933
     0.177757    -0.0939434     -0.121058     -0.121058     -0.121058     -0.121058     -0.121058     -0.121058
     0.178657    -0.0944912     -0.121179     -0.121179     -0.121179     -0.121179     -0.121179     -0.121179
     0.179559    -0.0951275     -0.121415     -0.121415     -0.121415     -0.121415     -0.121415     -0.121415
     0.180465    -0.0956854     -0.121608     -0.121608     -0.121608     -0.121608     -0.121608     -0.121608
      0.18137    -0.0960897     -0.121692     -0.121692     -0.121692     -0.121692     -0.121692     -0.121692
     0.182278    -0.0969604     -0.122251     -0.122251     -0.122251     -0.122251     -0.122251     -0.122251
     0.183188    -0.0975558     -0.122638     -0.122638     -0.122638     -0.122638     -0.122638     -0.122638
     0.184098    -0.0983402     -0.123213     -0.123213     -0.123213     -0.123213     -0.123213     -0.123213
     0.185011    -0.0988388     -0.123522     -0.123522     -0.123522     -0.123522     -0.123522     -0.123522
     0.185927    -0.0990946     -0.123636     -0.123636     -0.123636     -0.123636     -0.123636     -0.123636
     0.186845    -0.0996893     -0.124082     -0.124082     -0.124082     -0.124082     -0.124082     -0.124082
     0.187764     -0.100106     -0.124436     -0.124436     -0.124436     -0.124436     -0.124436     -0.124436
     0.188685     -0.100587     -0.124892     -0.124892     -0.124892     -0.124892     -0.124892     -0.124892
     0.189609     -0.101075     -0.125388     -0.125388     -0.125388     -0.125388     -0.125388     -0.125388
     0.190532      -0.10139     -0.125737     -0.125737     -0.125737     -0.125737     -0.125737     -0.125737
     0.191459     -0.101737     -0.126129     -0.126129     -0.126129     -0.126129     -0.126129     -0.126129
     0.192385     -0.102112     -0.126577     -0.126577     -0.126577     -0.126577     -0.126577     -0.126577
     0.193315     -0.102328     -0.126909     -0.126909     -0.126909     -0.126909     -0.126909     -0.126909
     0.194247     -0.102573     -0.127246     -0.127246     -0.127246     -0.127246     -0.127246     -0.127246
     0.195179     -0.102939     -0.127704     -0.127704     -0.127704     -0.127704     -0.127704     -0.127704
     0.196111     -0.103306     -0.128158     -0.128158     -0.128158     -0.128158     -0.128158     -0.128158
     0.197046     -0.103612     -0.128547     -0.128547     -0.128547     -0.128547     -0.128547     -0.128547
     0.197981      -0.10387      -0.12889      -0.12889      -0.12889      -0.12889      -0.12889      -0.12889
     0.198916     -0.104252     -0.129331     -0.129331     -0.129331     -0.129331     -0.129331     -0.129331
     0.199852     -0.104291     -0.129489     -0.129489     -0.129489     -0.129489     -0.129489     -0.129489
     0.200787     -0.104477      -0.12975      -0.12975      -0.12975      -0.12975      -0.12975      -0.12975
     0.201722      -0.10482      -0.13015      -0.13015      -0.13015      -0.13015      -0.13015      -0.13015
     0.202657     -0.105023     -0.130392     -0.130392     -0.130392     -0.130392     -0.130392     -0.130392
     0.203592     -0.105113     -0.130506     -0.130506     -0.130506     -0.130506     -0.130506     -0.130506
     0.204527     -0.105224     -0.130612     -0.130612     -0.130612     -0.130612     -0.130612     -0.130612
     0.205459     -0.105339     -0.130699     -0.130699     -0.130699     -0.130699     -0.130699     -0.130699
     0.206391     -0.105472     -0.130772     -0.130772     -0.130772     -0.130772     -0.130772     -0.130772
      0.20732     -0.105756     -0.130972     -0.130972     -0.130972     -0.130972     -0.130972     -0.130972
     0.208249     -0.105841     -0.130952     -0.130952     -0.130952     -0.130952     -0.130952     -0.130952
     0.209178     -0.105931     -0.130918     -0.130918     -0.130918     -0.130918     -0.130918     -0.130918
     0.210105     -0.106141     -0.130987     -0.130987     -0.130987     -0.130987     -0.130987     -0.130987
     0.211031     -0.106219     -0.130913     -0.130913     -0.130913     -0.130913     -0.130913     -0.130913
     0.211957     -0.106303     -0.130823     -0.130823     -0.130823     -0.130823     -0.130823     -0.130823